+ 0.0001 0 1 udp 222 ------- 0 0.0 1.0 0 0
- 0.0001 0 1 udp 222 ------- 0 0.0 1.0 0 0
r 0.01786 0 1 udp 222 ------- 0 0.0 1.0 0 0
+ 0.403525 0 1 udp 920 ------- 0 0.0 1.0 1 1
- 0.403525 0 1 udp 920 ------- 0 0.0 1.0 1 1
r 0.477125 0 1 udp 920 ------- 0 0.0 1.0 1 1
+ 0.618383 0 1 udp 85 ------- 0 0.0 1.0 2 2
- 0.618383 0 1 udp 85 ------- 0 0.0 1.0 2 2
r 0.625183 0 1 udp 85 ------- 0 0.0 1.0 2 2
+ 0.659712 0 1 udp 77 ------- 0 0.0 1.0 3 3
- 0.659712 0 1 udp 77 ------- 0 0.0 1.0 3 3
r 0.665872 0 1 udp 77 ------- 0 0.0 1.0 3 3
+ 0.718382 0 1 udp 170 ------- 0 0.0 1.0 4 4
- 0.718382 0 1 udp 170 ------- 0 0.0 1.0 4 4
r 0.731982 0 1 udp 170 ------- 0 0.0 1.0 4 4
+ 0.791608 0 1 udp 68 ------- 0 0.0 1.0 5 5
- 0.791608 0 1 udp 68 ------- 0 0.0 1.0 5 5
r 0.797048 0 1 udp 68 ------- 0 0.0 1.0 5 5
+ 0.850909 0 1 udp 1000 ------- 0 0.0 1.0 6 6
- 0.850909 0 1 udp 1000 ------- 0 0.0 1.0 6 6
+ 0.850909 0 1 udp 194 ------- 0 0.0 1.0 7 7
r 0.930909 0 1 udp 1000 ------- 0 0.0 1.0 6 6
- 0.930909 0 1 udp 194 ------- 0 0.0 1.0 7 7
+ 0.942171 0 1 udp 823 ------- 0 0.0 1.0 8 8
r 0.946429 0 1 udp 194 ------- 0 0.0 1.0 7 7
- 0.946429 0 1 udp 823 ------- 0 0.0 1.0 8 8
+ 0.964706 0 1 udp 325 ------- 0 0.0 1.0 9 9
+ 0.972339 0 1 udp 895 ------- 0 0.0 1.0 10 10
r 1.012269 0 1 udp 823 ------- 0 0.0 1.0 8 8
- 1.012269 0 1 udp 325 ------- 0 0.0 1.0 9 9
r 1.038269 0 1 udp 325 ------- 0 0.0 1.0 9 9
- 1.038269 0 1 udp 895 ------- 0 0.0 1.0 10 10
+ 1.060424 0 1 udp 399 ------- 0 0.0 1.0 11 11
+ 1.071252 0 1 udp 339 ------- 0 0.0 1.0 12 12
r 1.109869 0 1 udp 895 ------- 0 0.0 1.0 10 10
- 1.109869 0 1 udp 399 ------- 0 0.0 1.0 11 11
+ 1.139659 0 1 udp 289 ------- 0 0.0 1.0 13 13
r 1.141789 0 1 udp 399 ------- 0 0.0 1.0 11 11
- 1.141789 0 1 udp 339 ------- 0 0.0 1.0 12 12
r 1.168909 0 1 udp 339 ------- 0 0.0 1.0 12 12
- 1.168909 0 1 udp 289 ------- 0 0.0 1.0 13 13
+ 1.172817 0 1 udp 56 ------- 0 0.0 1.0 14 14
+ 1.191389 0 1 udp 578 ------- 0 0.0 1.0 15 15
r 1.192029 0 1 udp 289 ------- 0 0.0 1.0 13 13
- 1.192029 0 1 udp 56 ------- 0 0.0 1.0 14 14
r 1.196509 0 1 udp 56 ------- 0 0.0 1.0 14 14
- 1.196509 0 1 udp 578 ------- 0 0.0 1.0 15 15
+ 1.200205 0 1 udp 61 ------- 0 0.0 1.0 16 16
r 1.242749 0 1 udp 578 ------- 0 0.0 1.0 15 15
- 1.242749 0 1 udp 61 ------- 0 0.0 1.0 16 16
r 1.247629 0 1 udp 61 ------- 0 0.0 1.0 16 16
+ 1.272024 0 1 udp 103 ------- 0 0.0 1.0 17 17
- 1.272024 0 1 udp 103 ------- 0 0.0 1.0 17 17
r 1.280264 0 1 udp 103 ------- 0 0.0 1.0 17 17
+ 1.2917 0 1 udp 342 ------- 0 0.0 1.0 18 18
- 1.2917 0 1 udp 342 ------- 0 0.0 1.0 18 18
+ 1.296744 0 1 udp 343 ------- 0 0.0 1.0 19 19
r 1.31906 0 1 udp 342 ------- 0 0.0 1.0 18 18
- 1.31906 0 1 udp 343 ------- 0 0.0 1.0 19 19
r 1.3465 0 1 udp 343 ------- 0 0.0 1.0 19 19
+ 1.408592 0 1 udp 45 ------- 0 0.0 1.0 20 20
- 1.408592 0 1 udp 45 ------- 0 0.0 1.0 20 20
r 1.412192 0 1 udp 45 ------- 0 0.0 1.0 20 20
+ 1.493173 0 1 udp 44 ------- 0 0.0 1.0 21 21
- 1.493173 0 1 udp 44 ------- 0 0.0 1.0 21 21
+ 1.495962 0 1 udp 1000 ------- 0 0.0 1.0 22 22
+ 1.495962 0 1 udp 76 ------- 0 0.0 1.0 23 23
r 1.496693 0 1 udp 44 ------- 0 0.0 1.0 21 21
- 1.496693 0 1 udp 1000 ------- 0 0.0 1.0 22 22
r 1.576693 0 1 udp 1000 ------- 0 0.0 1.0 22 22
- 1.576693 0 1 udp 76 ------- 0 0.0 1.0 23 23
r 1.582773 0 1 udp 76 ------- 0 0.0 1.0 23 23
+ 1.606517 0 1 udp 197 ------- 0 0.0 1.0 24 24
- 1.606517 0 1 udp 197 ------- 0 0.0 1.0 24 24
r 1.622277 0 1 udp 197 ------- 0 0.0 1.0 24 24
+ 1.835175 0 1 udp 793 ------- 0 0.0 1.0 25 25
- 1.835175 0 1 udp 793 ------- 0 0.0 1.0 25 25
+ 1.890309 0 1 udp 515 ------- 0 0.0 1.0 26 26
r 1.898615 0 1 udp 793 ------- 0 0.0 1.0 25 25
- 1.898615 0 1 udp 515 ------- 0 0.0 1.0 26 26
+ 1.910639 0 1 udp 230 ------- 0 0.0 1.0 27 27
+ 1.928749 0 1 udp 508 ------- 0 0.0 1.0 28 28
+ 1.935397 0 1 udp 324 ------- 0 0.0 1.0 29 29
r 1.939815 0 1 udp 515 ------- 0 0.0 1.0 26 26
- 1.939815 0 1 udp 230 ------- 0 0.0 1.0 27 27
r 1.958215 0 1 udp 230 ------- 0 0.0 1.0 27 27
- 1.958215 0 1 udp 508 ------- 0 0.0 1.0 28 28
+ 1.965148 0 1 udp 423 ------- 0 0.0 1.0 30 30
r 1.998855 0 1 udp 508 ------- 0 0.0 1.0 28 28
- 1.998855 0 1 udp 324 ------- 0 0.0 1.0 29 29
r 2.024775 0 1 udp 324 ------- 0 0.0 1.0 29 29
- 2.024775 0 1 udp 423 ------- 0 0.0 1.0 30 30
r 2.058615 0 1 udp 423 ------- 0 0.0 1.0 30 30
+ 2.146536 0 1 udp 92 ------- 0 0.0 1.0 31 31
- 2.146536 0 1 udp 92 ------- 0 0.0 1.0 31 31
r 2.153896 0 1 udp 92 ------- 0 0.0 1.0 31 31
+ 2.231428 0 1 udp 98 ------- 0 0.0 1.0 32 32
- 2.231428 0 1 udp 98 ------- 0 0.0 1.0 32 32
+ 2.234188 0 1 udp 138 ------- 0 0.0 1.0 33 33
r 2.239268 0 1 udp 98 ------- 0 0.0 1.0 32 32
- 2.239268 0 1 udp 138 ------- 0 0.0 1.0 33 33
r 2.250308 0 1 udp 138 ------- 0 0.0 1.0 33 33
+ 2.3138 0 1 udp 9 ------- 0 0.0 1.0 34 34
- 2.3138 0 1 udp 9 ------- 0 0.0 1.0 34 34
r 2.31452 0 1 udp 9 ------- 0 0.0 1.0 34 34
+ 2.400765 0 1 udp 269 ------- 0 0.0 1.0 35 35
- 2.400765 0 1 udp 269 ------- 0 0.0 1.0 35 35
r 2.422285 0 1 udp 269 ------- 0 0.0 1.0 35 35
+ 2.521622 0 1 udp 55 ------- 0 0.0 1.0 36 36
- 2.521622 0 1 udp 55 ------- 0 0.0 1.0 36 36
r 2.526022 0 1 udp 55 ------- 0 0.0 1.0 36 36
+ 2.672787 0 1 udp 117 ------- 0 0.0 1.0 37 37
- 2.672787 0 1 udp 117 ------- 0 0.0 1.0 37 37
r 2.682147 0 1 udp 117 ------- 0 0.0 1.0 37 37
+ 2.704576 0 1 udp 920 ------- 0 0.0 1.0 38 38
- 2.704576 0 1 udp 920 ------- 0 0.0 1.0 38 38
+ 2.748243 0 1 udp 39 ------- 0 0.0 1.0 39 39
+ 2.758612 0 1 udp 51 ------- 0 0.0 1.0 40 40
+ 2.774642 0 1 udp 116 ------- 0 0.0 1.0 41 41
r 2.778176 0 1 udp 920 ------- 0 0.0 1.0 38 38
- 2.778176 0 1 udp 39 ------- 0 0.0 1.0 39 39
r 2.781296 0 1 udp 39 ------- 0 0.0 1.0 39 39
- 2.781296 0 1 udp 51 ------- 0 0.0 1.0 40 40
r 2.785376 0 1 udp 51 ------- 0 0.0 1.0 40 40
- 2.785376 0 1 udp 116 ------- 0 0.0 1.0 41 41
r 2.794656 0 1 udp 116 ------- 0 0.0 1.0 41 41
+ 2.801624 0 1 udp 391 ------- 0 0.0 1.0 42 42
- 2.801624 0 1 udp 391 ------- 0 0.0 1.0 42 42
+ 2.812767 0 1 udp 77 ------- 0 0.0 1.0 43 43
r 2.832904 0 1 udp 391 ------- 0 0.0 1.0 42 42
- 2.832904 0 1 udp 77 ------- 0 0.0 1.0 43 43
r 2.839064 0 1 udp 77 ------- 0 0.0 1.0 43 43
+ 2.842195 0 1 udp 155 ------- 0 0.0 1.0 44 44
- 2.842195 0 1 udp 155 ------- 0 0.0 1.0 44 44
+ 2.854499 0 1 udp 341 ------- 0 0.0 1.0 45 45
r 2.854595 0 1 udp 155 ------- 0 0.0 1.0 44 44
- 2.854595 0 1 udp 341 ------- 0 0.0 1.0 45 45
r 2.881875 0 1 udp 341 ------- 0 0.0 1.0 45 45
+ 2.950317 0 1 udp 373 ------- 0 0.0 1.0 46 46
- 2.950317 0 1 udp 373 ------- 0 0.0 1.0 46 46
r 2.980157 0 1 udp 373 ------- 0 0.0 1.0 46 46
+ 2.980868 0 1 udp 941 ------- 0 0.0 1.0 47 47
- 2.980868 0 1 udp 941 ------- 0 0.0 1.0 47 47
r 3.056148 0 1 udp 941 ------- 0 0.0 1.0 47 47
+ 3.417907 0 1 udp 137 ------- 0 0.0 1.0 48 48
- 3.417907 0 1 udp 137 ------- 0 0.0 1.0 48 48
r 3.428867 0 1 udp 137 ------- 0 0.0 1.0 48 48
+ 3.473562 0 1 udp 1000 ------- 0 0.0 1.0 49 49
- 3.473562 0 1 udp 1000 ------- 0 0.0 1.0 49 49
+ 3.473562 0 1 udp 295 ------- 0 0.0 1.0 50 50
+ 3.478218 0 1 udp 450 ------- 0 0.0 1.0 51 51
+ 3.529086 0 1 udp 430 ------- 0 0.0 1.0 52 52
r 3.553562 0 1 udp 1000 ------- 0 0.0 1.0 49 49
- 3.553562 0 1 udp 295 ------- 0 0.0 1.0 50 50
r 3.577162 0 1 udp 295 ------- 0 0.0 1.0 50 50
- 3.577162 0 1 udp 450 ------- 0 0.0 1.0 51 51
r 3.613162 0 1 udp 450 ------- 0 0.0 1.0 51 51
- 3.613162 0 1 udp 430 ------- 0 0.0 1.0 52 52
r 3.647562 0 1 udp 430 ------- 0 0.0 1.0 52 52
+ 3.816899 0 1 udp 48 ------- 0 0.0 1.0 53 53
- 3.816899 0 1 udp 48 ------- 0 0.0 1.0 53 53
r 3.820739 0 1 udp 48 ------- 0 0.0 1.0 53 53
+ 3.823284 0 1 udp 668 ------- 0 0.0 1.0 54 54
- 3.823284 0 1 udp 668 ------- 0 0.0 1.0 54 54
+ 3.834187 0 1 udp 106 ------- 0 0.0 1.0 55 55
r 3.876724 0 1 udp 668 ------- 0 0.0 1.0 54 54
- 3.876724 0 1 udp 106 ------- 0 0.0 1.0 55 55
r 3.885204 0 1 udp 106 ------- 0 0.0 1.0 55 55
+ 4.008118 0 1 udp 89 ------- 0 0.0 1.0 56 56
- 4.008118 0 1 udp 89 ------- 0 0.0 1.0 56 56
r 4.015238 0 1 udp 89 ------- 0 0.0 1.0 56 56
+ 4.032641 0 1 udp 301 ------- 0 0.0 1.0 57 57
- 4.032641 0 1 udp 301 ------- 0 0.0 1.0 57 57
r 4.056721 0 1 udp 301 ------- 0 0.0 1.0 57 57
+ 4.065595 0 1 udp 1000 ------- 0 0.0 1.0 58 58
- 4.065595 0 1 udp 1000 ------- 0 0.0 1.0 58 58
+ 4.065595 0 1 udp 566 ------- 0 0.0 1.0 59 59
+ 4.144993 0 1 udp 313 ------- 0 0.0 1.0 60 60
r 4.145595 0 1 udp 1000 ------- 0 0.0 1.0 58 58
- 4.145595 0 1 udp 566 ------- 0 0.0 1.0 59 59
+ 4.186466 0 1 udp 806 ------- 0 0.0 1.0 61 61
r 4.190875 0 1 udp 566 ------- 0 0.0 1.0 59 59
- 4.190875 0 1 udp 313 ------- 0 0.0 1.0 60 60
r 4.215915 0 1 udp 313 ------- 0 0.0 1.0 60 60
- 4.215915 0 1 udp 806 ------- 0 0.0 1.0 61 61
+ 4.242274 0 1 udp 584 ------- 0 0.0 1.0 62 62
+ 4.247628 0 1 udp 326 ------- 0 0.0 1.0 63 63
r 4.280395 0 1 udp 806 ------- 0 0.0 1.0 61 61
- 4.280395 0 1 udp 584 ------- 0 0.0 1.0 62 62
+ 4.290206 0 1 udp 116 ------- 0 0.0 1.0 64 64
r 4.327115 0 1 udp 584 ------- 0 0.0 1.0 62 62
- 4.327115 0 1 udp 326 ------- 0 0.0 1.0 63 63
+ 4.335547 0 1 udp 41 ------- 0 0.0 1.0 65 65
r 4.353195 0 1 udp 326 ------- 0 0.0 1.0 63 63
- 4.353195 0 1 udp 116 ------- 0 0.0 1.0 64 64
r 4.362475 0 1 udp 116 ------- 0 0.0 1.0 64 64
- 4.362475 0 1 udp 41 ------- 0 0.0 1.0 65 65
r 4.365755 0 1 udp 41 ------- 0 0.0 1.0 65 65
+ 4.372117 0 1 udp 61 ------- 0 0.0 1.0 66 66
- 4.372117 0 1 udp 61 ------- 0 0.0 1.0 66 66
r 4.376997 0 1 udp 61 ------- 0 0.0 1.0 66 66
+ 4.396025 0 1 udp 548 ------- 0 0.0 1.0 67 67
- 4.396025 0 1 udp 548 ------- 0 0.0 1.0 67 67
r 4.439865 0 1 udp 548 ------- 0 0.0 1.0 67 67
+ 4.489051 0 1 udp 657 ------- 0 0.0 1.0 68 68
- 4.489051 0 1 udp 657 ------- 0 0.0 1.0 68 68
r 4.541611 0 1 udp 657 ------- 0 0.0 1.0 68 68
+ 4.627498 0 1 udp 1000 ------- 0 0.0 1.0 69 69
- 4.627498 0 1 udp 1000 ------- 0 0.0 1.0 69 69
+ 4.627498 0 1 udp 224 ------- 0 0.0 1.0 70 70
+ 4.634454 0 1 udp 132 ------- 0 0.0 1.0 71 71
+ 4.662096 0 1 udp 70 ------- 0 0.0 1.0 72 72
r 4.707498 0 1 udp 1000 ------- 0 0.0 1.0 69 69
- 4.707498 0 1 udp 224 ------- 0 0.0 1.0 70 70
r 4.725418 0 1 udp 224 ------- 0 0.0 1.0 70 70
- 4.725418 0 1 udp 132 ------- 0 0.0 1.0 71 71
r 4.735978 0 1 udp 132 ------- 0 0.0 1.0 71 71
- 4.735978 0 1 udp 70 ------- 0 0.0 1.0 72 72
+ 4.737023 0 1 udp 409 ------- 0 0.0 1.0 73 73
r 4.741578 0 1 udp 70 ------- 0 0.0 1.0 72 72
- 4.741578 0 1 udp 409 ------- 0 0.0 1.0 73 73
r 4.774298 0 1 udp 409 ------- 0 0.0 1.0 73 73
+ 4.880222 0 1 udp 171 ------- 0 0.0 1.0 74 74
- 4.880222 0 1 udp 171 ------- 0 0.0 1.0 74 74
+ 4.89187 0 1 udp 558 ------- 0 0.0 1.0 75 75
r 4.893902 0 1 udp 171 ------- 0 0.0 1.0 74 74
- 4.893902 0 1 udp 558 ------- 0 0.0 1.0 75 75
+ 4.934096 0 1 udp 23 ------- 0 0.0 1.0 76 76
r 4.938542 0 1 udp 558 ------- 0 0.0 1.0 75 75
- 4.938542 0 1 udp 23 ------- 0 0.0 1.0 76 76
r 4.940382 0 1 udp 23 ------- 0 0.0 1.0 76 76
+ 4.975348 0 1 udp 39 ------- 0 0.0 1.0 77 77
- 4.975348 0 1 udp 39 ------- 0 0.0 1.0 77 77
r 4.978468 0 1 udp 39 ------- 0 0.0 1.0 77 77
+ 5.01457 0 1 udp 38 ------- 0 0.0 1.0 78 78
- 5.01457 0 1 udp 38 ------- 0 0.0 1.0 78 78
+ 5.016752 0 1 udp 21 ------- 0 0.0 1.0 79 79
r 5.01761 0 1 udp 38 ------- 0 0.0 1.0 78 78
- 5.01761 0 1 udp 21 ------- 0 0.0 1.0 79 79
r 5.01929 0 1 udp 21 ------- 0 0.0 1.0 79 79
+ 5.111965 0 1 udp 237 ------- 0 0.0 1.0 80 80
- 5.111965 0 1 udp 237 ------- 0 0.0 1.0 80 80
r 5.130925 0 1 udp 237 ------- 0 0.0 1.0 80 80
+ 5.143064 0 1 udp 11 ------- 0 0.0 1.0 81 81
- 5.143064 0 1 udp 11 ------- 0 0.0 1.0 81 81
r 5.143944 0 1 udp 11 ------- 0 0.0 1.0 81 81
+ 5.279972 0 1 udp 48 ------- 0 0.0 1.0 82 82
- 5.279972 0 1 udp 48 ------- 0 0.0 1.0 82 82
r 5.283812 0 1 udp 48 ------- 0 0.0 1.0 82 82
+ 5.313191 0 1 udp 506 ------- 0 0.0 1.0 83 83
- 5.313191 0 1 udp 506 ------- 0 0.0 1.0 83 83
+ 5.3291 0 1 udp 109 ------- 0 0.0 1.0 84 84
r 5.353671 0 1 udp 506 ------- 0 0.0 1.0 83 83
- 5.353671 0 1 udp 109 ------- 0 0.0 1.0 84 84
r 5.362391 0 1 udp 109 ------- 0 0.0 1.0 84 84
+ 5.36622 0 1 udp 149 ------- 0 0.0 1.0 85 85
- 5.36622 0 1 udp 149 ------- 0 0.0 1.0 85 85
r 5.37814 0 1 udp 149 ------- 0 0.0 1.0 85 85
+ 5.446041 0 1 udp 690 ------- 0 0.0 1.0 86 86
- 5.446041 0 1 udp 690 ------- 0 0.0 1.0 86 86
+ 5.467237 0 1 udp 368 ------- 0 0.0 1.0 87 87
r 5.501241 0 1 udp 690 ------- 0 0.0 1.0 86 86
- 5.501241 0 1 udp 368 ------- 0 0.0 1.0 87 87
r 5.530681 0 1 udp 368 ------- 0 0.0 1.0 87 87
+ 5.534357 0 1 udp 160 ------- 0 0.0 1.0 88 88
- 5.534357 0 1 udp 160 ------- 0 0.0 1.0 88 88
r 5.547157 0 1 udp 160 ------- 0 0.0 1.0 88 88
+ 5.559178 0 1 udp 482 ------- 0 0.0 1.0 89 89
- 5.559178 0 1 udp 482 ------- 0 0.0 1.0 89 89
+ 5.567116 0 1 udp 623 ------- 0 0.0 1.0 90 90
r 5.597738 0 1 udp 482 ------- 0 0.0 1.0 89 89
- 5.597738 0 1 udp 623 ------- 0 0.0 1.0 90 90
r 5.647578 0 1 udp 623 ------- 0 0.0 1.0 90 90
+ 5.657675 0 1 udp 969 ------- 0 0.0 1.0 91 91
- 5.657675 0 1 udp 969 ------- 0 0.0 1.0 91 91
r 5.735195 0 1 udp 969 ------- 0 0.0 1.0 91 91
+ 5.818296 0 1 udp 1000 ------- 0 0.0 1.0 92 92
- 5.818296 0 1 udp 1000 ------- 0 0.0 1.0 92 92
+ 5.818296 0 1 udp 106 ------- 0 0.0 1.0 93 93
r 5.898296 0 1 udp 1000 ------- 0 0.0 1.0 92 92
- 5.898296 0 1 udp 106 ------- 0 0.0 1.0 93 93
r 5.906776 0 1 udp 106 ------- 0 0.0 1.0 93 93
+ 5.925627 0 1 udp 583 ------- 0 0.0 1.0 94 94
- 5.925627 0 1 udp 583 ------- 0 0.0 1.0 94 94
r 5.972267 0 1 udp 583 ------- 0 0.0 1.0 94 94
+ 5.977347 0 1 udp 18 ------- 0 0.0 1.0 95 95
- 5.977347 0 1 udp 18 ------- 0 0.0 1.0 95 95
r 5.978787 0 1 udp 18 ------- 0 0.0 1.0 95 95
+ 6.123516 0 1 udp 131 ------- 0 0.0 1.0 96 96
- 6.123516 0 1 udp 131 ------- 0 0.0 1.0 96 96
+ 6.133402 0 1 udp 71 ------- 0 0.0 1.0 97 97
r 6.133996 0 1 udp 131 ------- 0 0.0 1.0 96 96
- 6.133996 0 1 udp 71 ------- 0 0.0 1.0 97 97
r 6.139676 0 1 udp 71 ------- 0 0.0 1.0 97 97
+ 6.175985 0 1 udp 231 ------- 0 0.0 1.0 98 98
- 6.175985 0 1 udp 231 ------- 0 0.0 1.0 98 98
r 6.194465 0 1 udp 231 ------- 0 0.0 1.0 98 98
+ 6.223177 0 1 udp 206 ------- 0 0.0 1.0 99 99
- 6.223177 0 1 udp 206 ------- 0 0.0 1.0 99 99
r 6.239657 0 1 udp 206 ------- 0 0.0 1.0 99 99
+ 6.32628 0 1 udp 72 ------- 0 0.0 1.0 100 100
- 6.32628 0 1 udp 72 ------- 0 0.0 1.0 100 100
r 6.33204 0 1 udp 72 ------- 0 0.0 1.0 100 100
+ 6.370452 0 1 udp 58 ------- 0 0.0 1.0 101 101
- 6.370452 0 1 udp 58 ------- 0 0.0 1.0 101 101
r 6.375092 0 1 udp 58 ------- 0 0.0 1.0 101 101
+ 6.381351 0 1 udp 88 ------- 0 0.0 1.0 102 102
- 6.381351 0 1 udp 88 ------- 0 0.0 1.0 102 102
r 6.388391 0 1 udp 88 ------- 0 0.0 1.0 102 102
+ 6.666551 0 1 udp 589 ------- 0 0.0 1.0 103 103
- 6.666551 0 1 udp 589 ------- 0 0.0 1.0 103 103
r 6.713671 0 1 udp 589 ------- 0 0.0 1.0 103 103
+ 6.796656 0 1 udp 280 ------- 0 0.0 1.0 104 104
- 6.796656 0 1 udp 280 ------- 0 0.0 1.0 104 104
+ 6.805564 0 1 udp 496 ------- 0 0.0 1.0 105 105
r 6.819056 0 1 udp 280 ------- 0 0.0 1.0 104 104
- 6.819056 0 1 udp 496 ------- 0 0.0 1.0 105 105
r 6.858736 0 1 udp 496 ------- 0 0.0 1.0 105 105
+ 6.898392 0 1 udp 133 ------- 0 0.0 1.0 106 106
- 6.898392 0 1 udp 133 ------- 0 0.0 1.0 106 106
r 6.909032 0 1 udp 133 ------- 0 0.0 1.0 106 106
+ 7.096135 0 1 udp 272 ------- 0 0.0 1.0 107 107
- 7.096135 0 1 udp 272 ------- 0 0.0 1.0 107 107
r 7.117895 0 1 udp 272 ------- 0 0.0 1.0 107 107
+ 7.138539 0 1 udp 1000 ------- 0 0.0 1.0 108 108
- 7.138539 0 1 udp 1000 ------- 0 0.0 1.0 108 108
+ 7.138539 0 1 udp 832 ------- 0 0.0 1.0 109 109
+ 7.198025 0 1 udp 505 ------- 0 0.0 1.0 110 110
+ 7.216772 0 1 udp 41 ------- 0 0.0 1.0 111 111
r 7.218539 0 1 udp 1000 ------- 0 0.0 1.0 108 108
- 7.218539 0 1 udp 832 ------- 0 0.0 1.0 109 109
+ 7.254997 0 1 udp 280 ------- 0 0.0 1.0 112 112
r 7.285099 0 1 udp 832 ------- 0 0.0 1.0 109 109
- 7.285099 0 1 udp 505 ------- 0 0.0 1.0 110 110
+ 7.307553 0 1 udp 5 ------- 0 0.0 1.0 113 113
r 7.325499 0 1 udp 505 ------- 0 0.0 1.0 110 110
- 7.325499 0 1 udp 41 ------- 0 0.0 1.0 111 111
r 7.328779 0 1 udp 41 ------- 0 0.0 1.0 111 111
- 7.328779 0 1 udp 280 ------- 0 0.0 1.0 112 112
r 7.351179 0 1 udp 280 ------- 0 0.0 1.0 112 112
- 7.351179 0 1 udp 5 ------- 0 0.0 1.0 113 113
r 7.351579 0 1 udp 5 ------- 0 0.0 1.0 113 113
+ 7.470356 0 1 udp 259 ------- 0 0.0 1.0 114 114
- 7.470356 0 1 udp 259 ------- 0 0.0 1.0 114 114
r 7.491076 0 1 udp 259 ------- 0 0.0 1.0 114 114
+ 7.512673 0 1 udp 355 ------- 0 0.0 1.0 115 115
- 7.512673 0 1 udp 355 ------- 0 0.0 1.0 115 115
+ 7.535015 0 1 udp 392 ------- 0 0.0 1.0 116 116
r 7.541073 0 1 udp 355 ------- 0 0.0 1.0 115 115
- 7.541073 0 1 udp 392 ------- 0 0.0 1.0 116 116
r 7.572433 0 1 udp 392 ------- 0 0.0 1.0 116 116
+ 7.599958 0 1 udp 1000 ------- 0 0.0 1.0 117 117
- 7.599958 0 1 udp 1000 ------- 0 0.0 1.0 117 117
+ 7.599958 0 1 udp 264 ------- 0 0.0 1.0 118 118
+ 7.602639 0 1 udp 719 ------- 0 0.0 1.0 119 119
+ 7.624589 0 1 udp 174 ------- 0 0.0 1.0 120 120
+ 7.665511 0 1 udp 1000 ------- 0 0.0 1.0 121 121
+ 7.665511 0 1 udp 96 ------- 0 0.0 1.0 122 122
r 7.679958 0 1 udp 1000 ------- 0 0.0 1.0 117 117
- 7.679958 0 1 udp 264 ------- 0 0.0 1.0 118 118
r 7.701078 0 1 udp 264 ------- 0 0.0 1.0 118 118
- 7.701078 0 1 udp 719 ------- 0 0.0 1.0 119 119
r 7.758598 0 1 udp 719 ------- 0 0.0 1.0 119 119
- 7.758598 0 1 udp 174 ------- 0 0.0 1.0 120 120
+ 7.768395 0 1 udp 449 ------- 0 0.0 1.0 123 123
r 7.772518 0 1 udp 174 ------- 0 0.0 1.0 120 120
- 7.772518 0 1 udp 1000 ------- 0 0.0 1.0 121 121
+ 7.801773 0 1 udp 371 ------- 0 0.0 1.0 124 124
r 7.852518 0 1 udp 1000 ------- 0 0.0 1.0 121 121
- 7.852518 0 1 udp 96 ------- 0 0.0 1.0 122 122
+ 7.857666 0 1 udp 96 ------- 0 0.0 1.0 125 125
r 7.860198 0 1 udp 96 ------- 0 0.0 1.0 122 122
- 7.860198 0 1 udp 449 ------- 0 0.0 1.0 123 123
r 7.896118 0 1 udp 449 ------- 0 0.0 1.0 123 123
- 7.896118 0 1 udp 371 ------- 0 0.0 1.0 124 124
+ 7.90736 0 1 udp 231 ------- 0 0.0 1.0 126 126
r 7.925798 0 1 udp 371 ------- 0 0.0 1.0 124 124
- 7.925798 0 1 udp 96 ------- 0 0.0 1.0 125 125
r 7.933478 0 1 udp 96 ------- 0 0.0 1.0 125 125
- 7.933478 0 1 udp 231 ------- 0 0.0 1.0 126 126
+ 7.950233 0 1 udp 135 ------- 0 0.0 1.0 127 127
r 7.951958 0 1 udp 231 ------- 0 0.0 1.0 126 126
- 7.951958 0 1 udp 135 ------- 0 0.0 1.0 127 127
+ 7.958961 0 1 udp 248 ------- 0 0.0 1.0 128 128
r 7.962758 0 1 udp 135 ------- 0 0.0 1.0 127 127
- 7.962758 0 1 udp 248 ------- 0 0.0 1.0 128 128
r 7.982598 0 1 udp 248 ------- 0 0.0 1.0 128 128
+ 7.99804 0 1 udp 206 ------- 0 0.0 1.0 129 129
- 7.99804 0 1 udp 206 ------- 0 0.0 1.0 129 129
+ 8.005898 0 1 udp 498 ------- 0 0.0 1.0 130 130
+ 8.009901 0 1 udp 440 ------- 0 0.0 1.0 131 131
r 8.01452 0 1 udp 206 ------- 0 0.0 1.0 129 129
- 8.01452 0 1 udp 498 ------- 0 0.0 1.0 130 130
r 8.05436 0 1 udp 498 ------- 0 0.0 1.0 130 130
- 8.05436 0 1 udp 440 ------- 0 0.0 1.0 131 131
r 8.08956 0 1 udp 440 ------- 0 0.0 1.0 131 131
+ 8.147862 0 1 udp 284 ------- 0 0.0 1.0 132 132
- 8.147862 0 1 udp 284 ------- 0 0.0 1.0 132 132
+ 8.156509 0 1 udp 260 ------- 0 0.0 1.0 133 133
+ 8.157153 0 1 udp 57 ------- 0 0.0 1.0 134 134
r 8.170582 0 1 udp 284 ------- 0 0.0 1.0 132 132
- 8.170582 0 1 udp 260 ------- 0 0.0 1.0 133 133
r 8.191382 0 1 udp 260 ------- 0 0.0 1.0 133 133
- 8.191382 0 1 udp 57 ------- 0 0.0 1.0 134 134
r 8.195942 0 1 udp 57 ------- 0 0.0 1.0 134 134
+ 8.227415 0 1 udp 39 ------- 0 0.0 1.0 135 135
- 8.227415 0 1 udp 39 ------- 0 0.0 1.0 135 135
r 8.230535 0 1 udp 39 ------- 0 0.0 1.0 135 135
+ 8.231867 0 1 udp 254 ------- 0 0.0 1.0 136 136
- 8.231867 0 1 udp 254 ------- 0 0.0 1.0 136 136
r 8.252187 0 1 udp 254 ------- 0 0.0 1.0 136 136
+ 8.288013 0 1 udp 304 ------- 0 0.0 1.0 137 137
- 8.288013 0 1 udp 304 ------- 0 0.0 1.0 137 137
+ 8.3013 0 1 udp 1000 ------- 0 0.0 1.0 138 138
+ 8.3013 0 1 udp 3 ------- 0 0.0 1.0 139 139
r 8.312333 0 1 udp 304 ------- 0 0.0 1.0 137 137
- 8.312333 0 1 udp 1000 ------- 0 0.0 1.0 138 138
+ 8.314361 0 1 udp 408 ------- 0 0.0 1.0 140 140
+ 8.380756 0 1 udp 201 ------- 0 0.0 1.0 141 141
r 8.392333 0 1 udp 1000 ------- 0 0.0 1.0 138 138
- 8.392333 0 1 udp 3 ------- 0 0.0 1.0 139 139
r 8.392573 0 1 udp 3 ------- 0 0.0 1.0 139 139
- 8.392573 0 1 udp 408 ------- 0 0.0 1.0 140 140
+ 8.421503 0 1 udp 210 ------- 0 0.0 1.0 142 142
r 8.425213 0 1 udp 408 ------- 0 0.0 1.0 140 140
- 8.425213 0 1 udp 201 ------- 0 0.0 1.0 141 141
r 8.441293 0 1 udp 201 ------- 0 0.0 1.0 141 141
- 8.441293 0 1 udp 210 ------- 0 0.0 1.0 142 142
+ 8.443091 0 1 udp 1000 ------- 0 0.0 1.0 143 143
+ 8.443091 0 1 udp 273 ------- 0 0.0 1.0 144 144
r 8.458093 0 1 udp 210 ------- 0 0.0 1.0 142 142
- 8.458093 0 1 udp 1000 ------- 0 0.0 1.0 143 143
+ 8.512846 0 1 udp 268 ------- 0 0.0 1.0 145 145
r 8.538093 0 1 udp 1000 ------- 0 0.0 1.0 143 143
- 8.538093 0 1 udp 273 ------- 0 0.0 1.0 144 144
r 8.559933 0 1 udp 273 ------- 0 0.0 1.0 144 144
- 8.559933 0 1 udp 268 ------- 0 0.0 1.0 145 145
r 8.581373 0 1 udp 268 ------- 0 0.0 1.0 145 145
+ 8.65043 0 1 udp 68 ------- 0 0.0 1.0 146 146
- 8.65043 0 1 udp 68 ------- 0 0.0 1.0 146 146
r 8.65587 0 1 udp 68 ------- 0 0.0 1.0 146 146
+ 8.777001 0 1 udp 276 ------- 0 0.0 1.0 147 147
- 8.777001 0 1 udp 276 ------- 0 0.0 1.0 147 147
r 8.799081 0 1 udp 276 ------- 0 0.0 1.0 147 147
+ 8.813097 0 1 udp 193 ------- 0 0.0 1.0 148 148
- 8.813097 0 1 udp 193 ------- 0 0.0 1.0 148 148
r 8.828537 0 1 udp 193 ------- 0 0.0 1.0 148 148
+ 8.859529 0 1 udp 61 ------- 0 0.0 1.0 149 149
- 8.859529 0 1 udp 61 ------- 0 0.0 1.0 149 149
r 8.864409 0 1 udp 61 ------- 0 0.0 1.0 149 149
+ 8.878726 0 1 udp 452 ------- 0 0.0 1.0 150 150
- 8.878726 0 1 udp 452 ------- 0 0.0 1.0 150 150
r 8.914886 0 1 udp 452 ------- 0 0.0 1.0 150 150
+ 8.920708 0 1 udp 430 ------- 0 0.0 1.0 151 151
- 8.920708 0 1 udp 430 ------- 0 0.0 1.0 151 151
r 8.955108 0 1 udp 430 ------- 0 0.0 1.0 151 151
+ 9.02413 0 1 udp 287 ------- 0 0.0 1.0 152 152
- 9.02413 0 1 udp 287 ------- 0 0.0 1.0 152 152
r 9.04709 0 1 udp 287 ------- 0 0.0 1.0 152 152
+ 9.051559 0 1 udp 374 ------- 0 0.0 1.0 153 153
- 9.051559 0 1 udp 374 ------- 0 0.0 1.0 153 153
r 9.081479 0 1 udp 374 ------- 0 0.0 1.0 153 153
+ 9.120031 0 1 udp 934 ------- 0 0.0 1.0 154 154
- 9.120031 0 1 udp 934 ------- 0 0.0 1.0 154 154
r 9.194751 0 1 udp 934 ------- 0 0.0 1.0 154 154
+ 9.237284 0 1 udp 274 ------- 0 0.0 1.0 155 155
- 9.237284 0 1 udp 274 ------- 0 0.0 1.0 155 155
r 9.259204 0 1 udp 274 ------- 0 0.0 1.0 155 155
+ 9.274806 0 1 udp 309 ------- 0 0.0 1.0 156 156
- 9.274806 0 1 udp 309 ------- 0 0.0 1.0 156 156
r 9.299526 0 1 udp 309 ------- 0 0.0 1.0 156 156
+ 9.404628 0 1 udp 209 ------- 0 0.0 1.0 157 157
- 9.404628 0 1 udp 209 ------- 0 0.0 1.0 157 157
r 9.421348 0 1 udp 209 ------- 0 0.0 1.0 157 157
+ 9.558573 0 1 udp 30 ------- 0 0.0 1.0 158 158
- 9.558573 0 1 udp 30 ------- 0 0.0 1.0 158 158
r 9.560973 0 1 udp 30 ------- 0 0.0 1.0 158 158
+ 9.689125 0 1 udp 338 ------- 0 0.0 1.0 159 159
- 9.689125 0 1 udp 338 ------- 0 0.0 1.0 159 159
r 9.716165 0 1 udp 338 ------- 0 0.0 1.0 159 159
+ 9.749322 0 1 udp 110 ------- 0 0.0 1.0 160 160
- 9.749322 0 1 udp 110 ------- 0 0.0 1.0 160 160
r 9.758122 0 1 udp 110 ------- 0 0.0 1.0 160 160
+ 9.766854 0 1 udp 5 ------- 0 0.0 1.0 161 161
- 9.766854 0 1 udp 5 ------- 0 0.0 1.0 161 161
r 9.767254 0 1 udp 5 ------- 0 0.0 1.0 161 161
+ 9.847237 0 1 udp 86 ------- 0 0.0 1.0 162 162
- 9.847237 0 1 udp 86 ------- 0 0.0 1.0 162 162
r 9.854117 0 1 udp 86 ------- 0 0.0 1.0 162 162
+ 9.898531 0 1 udp 264 ------- 0 0.0 1.0 163 163
- 9.898531 0 1 udp 264 ------- 0 0.0 1.0 163 163
r 9.919651 0 1 udp 264 ------- 0 0.0 1.0 163 163
+ 9.92353 0 1 udp 38 ------- 0 0.0 1.0 164 164
- 9.92353 0 1 udp 38 ------- 0 0.0 1.0 164 164
r 9.92657 0 1 udp 38 ------- 0 0.0 1.0 164 164
+ 10.025757 0 1 udp 54 ------- 0 0.0 1.0 165 165
- 10.025757 0 1 udp 54 ------- 0 0.0 1.0 165 165
r 10.030077 0 1 udp 54 ------- 0 0.0 1.0 165 165
+ 10.031042 0 1 udp 932 ------- 0 0.0 1.0 166 166
- 10.031042 0 1 udp 932 ------- 0 0.0 1.0 166 166
+ 10.070204 0 1 udp 212 ------- 0 0.0 1.0 167 167
r 10.105602 0 1 udp 932 ------- 0 0.0 1.0 166 166
- 10.105602 0 1 udp 212 ------- 0 0.0 1.0 167 167
r 10.122562 0 1 udp 212 ------- 0 0.0 1.0 167 167
+ 10.209505 0 1 udp 481 ------- 0 0.0 1.0 168 168
- 10.209505 0 1 udp 481 ------- 0 0.0 1.0 168 168
+ 10.226766 0 1 udp 83 ------- 0 0.0 1.0 169 169
r 10.247985 0 1 udp 481 ------- 0 0.0 1.0 168 168
- 10.247985 0 1 udp 83 ------- 0 0.0 1.0 169 169
+ 10.252982 0 1 udp 75 ------- 0 0.0 1.0 170 170
r 10.254625 0 1 udp 83 ------- 0 0.0 1.0 169 169
- 10.254625 0 1 udp 75 ------- 0 0.0 1.0 170 170
r 10.260625 0 1 udp 75 ------- 0 0.0 1.0 170 170
+ 10.283786 0 1 udp 260 ------- 0 0.0 1.0 171 171
- 10.283786 0 1 udp 260 ------- 0 0.0 1.0 171 171
+ 10.302488 0 1 udp 235 ------- 0 0.0 1.0 172 172
r 10.304586 0 1 udp 260 ------- 0 0.0 1.0 171 171
- 10.304586 0 1 udp 235 ------- 0 0.0 1.0 172 172
r 10.323386 0 1 udp 235 ------- 0 0.0 1.0 172 172
+ 10.323532 0 1 udp 486 ------- 0 0.0 1.0 173 173
- 10.323532 0 1 udp 486 ------- 0 0.0 1.0 173 173
r 10.362412 0 1 udp 486 ------- 0 0.0 1.0 173 173
+ 10.417783 0 1 udp 492 ------- 0 0.0 1.0 174 174
- 10.417783 0 1 udp 492 ------- 0 0.0 1.0 174 174
r 10.457143 0 1 udp 492 ------- 0 0.0 1.0 174 174
+ 10.512857 0 1 udp 16 ------- 0 0.0 1.0 175 175
- 10.512857 0 1 udp 16 ------- 0 0.0 1.0 175 175
r 10.514137 0 1 udp 16 ------- 0 0.0 1.0 175 175
+ 10.616011 0 1 udp 74 ------- 0 0.0 1.0 176 176
- 10.616011 0 1 udp 74 ------- 0 0.0 1.0 176 176
r 10.621931 0 1 udp 74 ------- 0 0.0 1.0 176 176
+ 10.624966 0 1 udp 229 ------- 0 0.0 1.0 177 177
- 10.624966 0 1 udp 229 ------- 0 0.0 1.0 177 177
r 10.643286 0 1 udp 229 ------- 0 0.0 1.0 177 177
+ 10.643602 0 1 udp 290 ------- 0 0.0 1.0 178 178
- 10.643602 0 1 udp 290 ------- 0 0.0 1.0 178 178
r 10.666802 0 1 udp 290 ------- 0 0.0 1.0 178 178
+ 10.748814 0 1 udp 327 ------- 0 0.0 1.0 179 179
- 10.748814 0 1 udp 327 ------- 0 0.0 1.0 179 179
r 10.774974 0 1 udp 327 ------- 0 0.0 1.0 179 179
+ 10.817696 0 1 udp 1000 ------- 0 0.0 1.0 180 180
- 10.817696 0 1 udp 1000 ------- 0 0.0 1.0 180 180
+ 10.817696 0 1 udp 173 ------- 0 0.0 1.0 181 181
+ 10.884087 0 1 udp 375 ------- 0 0.0 1.0 182 182
+ 10.886231 0 1 udp 140 ------- 0 0.0 1.0 183 183
r 10.897696 0 1 udp 1000 ------- 0 0.0 1.0 180 180
- 10.897696 0 1 udp 173 ------- 0 0.0 1.0 181 181
r 10.911536 0 1 udp 173 ------- 0 0.0 1.0 181 181
- 10.911536 0 1 udp 375 ------- 0 0.0 1.0 182 182
r 10.941536 0 1 udp 375 ------- 0 0.0 1.0 182 182
- 10.941536 0 1 udp 140 ------- 0 0.0 1.0 183 183
r 10.952736 0 1 udp 140 ------- 0 0.0 1.0 183 183
+ 10.966184 0 1 udp 125 ------- 0 0.0 1.0 184 184
- 10.966184 0 1 udp 125 ------- 0 0.0 1.0 184 184
r 10.976184 0 1 udp 125 ------- 0 0.0 1.0 184 184
+ 10.992433 0 1 udp 845 ------- 0 0.0 1.0 185 185
- 10.992433 0 1 udp 845 ------- 0 0.0 1.0 185 185
r 11.060033 0 1 udp 845 ------- 0 0.0 1.0 185 185
+ 11.075971 0 1 udp 210 ------- 0 0.0 1.0 186 186
- 11.075971 0 1 udp 210 ------- 0 0.0 1.0 186 186
r 11.092771 0 1 udp 210 ------- 0 0.0 1.0 186 186
+ 11.128577 0 1 udp 1 ------- 0 0.0 1.0 187 187
- 11.128577 0 1 udp 1 ------- 0 0.0 1.0 187 187
r 11.128657 0 1 udp 1 ------- 0 0.0 1.0 187 187
+ 11.199974 0 1 udp 310 ------- 0 0.0 1.0 188 188
- 11.199974 0 1 udp 310 ------- 0 0.0 1.0 188 188
r 11.224774 0 1 udp 310 ------- 0 0.0 1.0 188 188
+ 11.240739 0 1 udp 77 ------- 0 0.0 1.0 189 189
- 11.240739 0 1 udp 77 ------- 0 0.0 1.0 189 189
r 11.246899 0 1 udp 77 ------- 0 0.0 1.0 189 189
+ 11.255455 0 1 udp 402 ------- 0 0.0 1.0 190 190
- 11.255455 0 1 udp 402 ------- 0 0.0 1.0 190 190
r 11.287615 0 1 udp 402 ------- 0 0.0 1.0 190 190
+ 11.314098 0 1 udp 1000 ------- 0 0.0 1.0 191 191
- 11.314098 0 1 udp 1000 ------- 0 0.0 1.0 191 191
+ 11.314098 0 1 udp 197 ------- 0 0.0 1.0 192 192
+ 11.32087 0 1 udp 68 ------- 0 0.0 1.0 193 193
+ 11.337626 0 1 udp 471 ------- 0 0.0 1.0 194 194
+ 11.371293 0 1 udp 469 ------- 0 0.0 1.0 195 195
r 11.394098 0 1 udp 1000 ------- 0 0.0 1.0 191 191
- 11.394098 0 1 udp 197 ------- 0 0.0 1.0 192 192
r 11.409858 0 1 udp 197 ------- 0 0.0 1.0 192 192
- 11.409858 0 1 udp 68 ------- 0 0.0 1.0 193 193
r 11.415298 0 1 udp 68 ------- 0 0.0 1.0 193 193
- 11.415298 0 1 udp 471 ------- 0 0.0 1.0 194 194
+ 11.418005 0 1 udp 596 ------- 0 0.0 1.0 196 196
r 11.452978 0 1 udp 471 ------- 0 0.0 1.0 194 194
- 11.452978 0 1 udp 469 ------- 0 0.0 1.0 195 195
+ 11.461772 0 1 udp 236 ------- 0 0.0 1.0 197 197
r 11.490498 0 1 udp 469 ------- 0 0.0 1.0 195 195
- 11.490498 0 1 udp 596 ------- 0 0.0 1.0 196 196
r 11.538178 0 1 udp 596 ------- 0 0.0 1.0 196 196
- 11.538178 0 1 udp 236 ------- 0 0.0 1.0 197 197
r 11.557058 0 1 udp 236 ------- 0 0.0 1.0 197 197
+ 11.68965 0 1 udp 5 ------- 0 0.0 1.0 198 198
- 11.68965 0 1 udp 5 ------- 0 0.0 1.0 198 198
r 11.69005 0 1 udp 5 ------- 0 0.0 1.0 198 198
+ 11.739696 0 1 udp 88 ------- 0 0.0 1.0 199 199
- 11.739696 0 1 udp 88 ------- 0 0.0 1.0 199 199
r 11.746736 0 1 udp 88 ------- 0 0.0 1.0 199 199
+ 11.765138 0 1 udp 350 ------- 0 0.0 1.0 200 200
- 11.765138 0 1 udp 350 ------- 0 0.0 1.0 200 200
r 11.793138 0 1 udp 350 ------- 0 0.0 1.0 200 200
+ 11.820838 0 1 udp 30 ------- 0 0.0 1.0 201 201
- 11.820838 0 1 udp 30 ------- 0 0.0 1.0 201 201
+ 11.821006 0 1 udp 461 ------- 0 0.0 1.0 202 202
r 11.823238 0 1 udp 30 ------- 0 0.0 1.0 201 201
- 11.823238 0 1 udp 461 ------- 0 0.0 1.0 202 202
+ 11.836429 0 1 udp 204 ------- 0 0.0 1.0 203 203
+ 11.844355 0 1 udp 656 ------- 0 0.0 1.0 204 204
r 11.860118 0 1 udp 461 ------- 0 0.0 1.0 202 202
- 11.860118 0 1 udp 204 ------- 0 0.0 1.0 203 203
r 11.876438 0 1 udp 204 ------- 0 0.0 1.0 203 203
- 11.876438 0 1 udp 656 ------- 0 0.0 1.0 204 204
+ 11.890656 0 1 udp 309 ------- 0 0.0 1.0 205 205
+ 11.891243 0 1 udp 224 ------- 0 0.0 1.0 206 206
+ 11.901931 0 1 udp 704 ------- 0 0.0 1.0 207 207
+ 11.90242 0 1 udp 489 ------- 0 0.0 1.0 208 208
+ 11.921678 0 1 udp 917 ------- 0 0.0 1.0 209 209
r 11.928918 0 1 udp 656 ------- 0 0.0 1.0 204 204
- 11.928918 0 1 udp 309 ------- 0 0.0 1.0 205 205
r 11.953638 0 1 udp 309 ------- 0 0.0 1.0 205 205
- 11.953638 0 1 udp 224 ------- 0 0.0 1.0 206 206
r 11.971558 0 1 udp 224 ------- 0 0.0 1.0 206 206
- 11.971558 0 1 udp 704 ------- 0 0.0 1.0 207 207
+ 12.01372 0 1 udp 1000 ------- 0 0.0 1.0 210 210
+ 12.01372 0 1 udp 297 ------- 0 0.0 1.0 211 211