+ 0.0001 0 1 udp 379 ------- 0 0.0 1.0 0 0
- 0.0001 0 1 udp 379 ------- 0 0.0 1.0 0 0
r 0.03042 0 1 udp 379 ------- 0 0.0 1.0 0 0
+ 0.39949 0 1 udp 379 ------- 0 0.0 1.0 1 1
- 0.39949 0 1 udp 379 ------- 0 0.0 1.0 1 1
+ 0.428851 0 1 udp 379 ------- 0 0.0 1.0 2 2
r 0.429811 0 1 udp 379 ------- 0 0.0 1.0 1 1
- 0.429811 0 1 udp 379 ------- 0 0.0 1.0 2 2
r 0.460131 0 1 udp 379 ------- 0 0.0 1.0 2 2
+ 0.64156 0 1 udp 379 ------- 0 0.0 1.0 3 3
- 0.64156 0 1 udp 379 ------- 0 0.0 1.0 3 3
r 0.67188 0 1 udp 379 ------- 0 0.0 1.0 3 3
+ 0.763011 0 1 udp 379 ------- 0 0.0 1.0 4 4
- 0.763011 0 1 udp 379 ------- 0 0.0 1.0 4 4
r 0.793331 0 1 udp 379 ------- 0 0.0 1.0 4 4
+ 0.803927 0 1 udp 379 ------- 0 0.0 1.0 5 5
- 0.803927 0 1 udp 379 ------- 0 0.0 1.0 5 5
+ 0.815137 0 1 udp 379 ------- 0 0.0 1.0 6 6
r 0.834247 0 1 udp 379 ------- 0 0.0 1.0 5 5
- 0.834247 0 1 udp 379 ------- 0 0.0 1.0 6 6
r 0.864567 0 1 udp 379 ------- 0 0.0 1.0 6 6
+ 0.873221 0 1 udp 379 ------- 0 0.0 1.0 7 7
- 0.873221 0 1 udp 379 ------- 0 0.0 1.0 7 7
+ 0.883359 0 1 udp 379 ------- 0 0.0 1.0 8 8
r 0.903541 0 1 udp 379 ------- 0 0.0 1.0 7 7
- 0.903541 0 1 udp 379 ------- 0 0.0 1.0 8 8
r 0.933861 0 1 udp 379 ------- 0 0.0 1.0 8 8
+ 0.955852 0 1 udp 379 ------- 0 0.0 1.0 9 9
- 0.955852 0 1 udp 379 ------- 0 0.0 1.0 9 9
+ 0.978255 0 1 udp 379 ------- 0 0.0 1.0 10 10
r 0.986172 0 1 udp 379 ------- 0 0.0 1.0 9 9
- 0.986172 0 1 udp 379 ------- 0 0.0 1.0 10 10
r 1.016492 0 1 udp 379 ------- 0 0.0 1.0 10 10
+ 1.036963 0 1 udp 379 ------- 0 0.0 1.0 11 11
- 1.036963 0 1 udp 379 ------- 0 0.0 1.0 11 11
+ 1.0459 0 1 udp 379 ------- 0 0.0 1.0 12 12
r 1.067283 0 1 udp 379 ------- 0 0.0 1.0 11 11
- 1.067283 0 1 udp 379 ------- 0 0.0 1.0 12 12
r 1.097603 0 1 udp 379 ------- 0 0.0 1.0 12 12
+ 1.13625 0 1 udp 379 ------- 0 0.0 1.0 13 13
- 1.13625 0 1 udp 379 ------- 0 0.0 1.0 13 13
r 1.16657 0 1 udp 379 ------- 0 0.0 1.0 13 13
+ 1.293817 0 1 udp 379 ------- 0 0.0 1.0 14 14
- 1.293817 0 1 udp 379 ------- 0 0.0 1.0 14 14
+ 1.316126 0 1 udp 379 ------- 0 0.0 1.0 15 15
r 1.324137 0 1 udp 379 ------- 0 0.0 1.0 14 14
- 1.324137 0 1 udp 379 ------- 0 0.0 1.0 15 15
r 1.354457 0 1 udp 379 ------- 0 0.0 1.0 15 15
+ 1.424788 0 1 udp 379 ------- 0 0.0 1.0 16 16
- 1.424788 0 1 udp 379 ------- 0 0.0 1.0 16 16
+ 1.432345 0 1 udp 379 ------- 0 0.0 1.0 17 17
r 1.455108 0 1 udp 379 ------- 0 0.0 1.0 16 16
- 1.455108 0 1 udp 379 ------- 0 0.0 1.0 17 17
+ 1.475287 0 1 udp 379 ------- 0 0.0 1.0 18 18
r 1.485428 0 1 udp 379 ------- 0 0.0 1.0 17 17
- 1.485428 0 1 udp 379 ------- 0 0.0 1.0 18 18
r 1.515748 0 1 udp 379 ------- 0 0.0 1.0 18 18
+ 1.562491 0 1 udp 379 ------- 0 0.0 1.0 19 19
- 1.562491 0 1 udp 379 ------- 0 0.0 1.0 19 19
r 1.592811 0 1 udp 379 ------- 0 0.0 1.0 19 19
+ 1.68064 0 1 udp 379 ------- 0 0.0 1.0 20 20
- 1.68064 0 1 udp 379 ------- 0 0.0 1.0 20 20
+ 1.69136 0 1 udp 379 ------- 0 0.0 1.0 21 21
r 1.71096 0 1 udp 379 ------- 0 0.0 1.0 20 20
- 1.71096 0 1 udp 379 ------- 0 0.0 1.0 21 21
r 1.74128 0 1 udp 379 ------- 0 0.0 1.0 21 21
+ 1.744031 0 1 udp 379 ------- 0 0.0 1.0 22 22
- 1.744031 0 1 udp 379 ------- 0 0.0 1.0 22 22
r 1.774351 0 1 udp 379 ------- 0 0.0 1.0 22 22
+ 1.811754 0 1 udp 379 ------- 0 0.0 1.0 23 23
- 1.811754 0 1 udp 379 ------- 0 0.0 1.0 23 23
r 1.842074 0 1 udp 379 ------- 0 0.0 1.0 23 23
+ 1.856494 0 1 udp 379 ------- 0 0.0 1.0 24 24
- 1.856494 0 1 udp 379 ------- 0 0.0 1.0 24 24
r 1.886814 0 1 udp 379 ------- 0 0.0 1.0 24 24
+ 1.889321 0 1 udp 379 ------- 0 0.0 1.0 25 25
- 1.889321 0 1 udp 379 ------- 0 0.0 1.0 25 25
r 1.919641 0 1 udp 379 ------- 0 0.0 1.0 25 25
+ 1.927487 0 1 udp 379 ------- 0 0.0 1.0 26 26
- 1.927487 0 1 udp 379 ------- 0 0.0 1.0 26 26
+ 1.945873 0 1 udp 379 ------- 0 0.0 1.0 27 27
+ 1.953294 0 1 udp 379 ------- 0 0.0 1.0 28 28
r 1.957807 0 1 udp 379 ------- 0 0.0 1.0 26 26
- 1.957807 0 1 udp 379 ------- 0 0.0 1.0 27 27
+ 1.962022 0 1 udp 379 ------- 0 0.0 1.0 29 29
r 1.988127 0 1 udp 379 ------- 0 0.0 1.0 27 27
- 1.988127 0 1 udp 379 ------- 0 0.0 1.0 28 28
r 2.018447 0 1 udp 379 ------- 0 0.0 1.0 28 28
- 2.018447 0 1 udp 379 ------- 0 0.0 1.0 29 29
+ 2.038379 0 1 udp 379 ------- 0 0.0 1.0 30 30
r 2.048767 0 1 udp 379 ------- 0 0.0 1.0 29 29
- 2.048767 0 1 udp 379 ------- 0 0.0 1.0 30 30
r 2.079087 0 1 udp 379 ------- 0 0.0 1.0 30 30
+ 2.10948 0 1 udp 379 ------- 0 0.0 1.0 31 31
- 2.10948 0 1 udp 379 ------- 0 0.0 1.0 31 31
+ 2.117541 0 1 udp 379 ------- 0 0.0 1.0 32 32
+ 2.137019 0 1 udp 379 ------- 0 0.0 1.0 33 33
r 2.1398 0 1 udp 379 ------- 0 0.0 1.0 31 31
- 2.1398 0 1 udp 379 ------- 0 0.0 1.0 32 32
+ 2.150594 0 1 udp 379 ------- 0 0.0 1.0 34 34
+ 2.155588 0 1 udp 379 ------- 0 0.0 1.0 35 35
r 2.17012 0 1 udp 379 ------- 0 0.0 1.0 32 32
- 2.17012 0 1 udp 379 ------- 0 0.0 1.0 33 33
r 2.20044 0 1 udp 379 ------- 0 0.0 1.0 33 33
- 2.20044 0 1 udp 379 ------- 0 0.0 1.0 34 34
+ 2.200718 0 1 udp 379 ------- 0 0.0 1.0 36 36
r 2.23076 0 1 udp 379 ------- 0 0.0 1.0 34 34
- 2.23076 0 1 udp 379 ------- 0 0.0 1.0 35 35
r 2.26108 0 1 udp 379 ------- 0 0.0 1.0 35 35
- 2.26108 0 1 udp 379 ------- 0 0.0 1.0 36 36
r 2.2914 0 1 udp 379 ------- 0 0.0 1.0 36 36
+ 2.311447 0 1 udp 379 ------- 0 0.0 1.0 37 37
- 2.311447 0 1 udp 379 ------- 0 0.0 1.0 37 37
r 2.341767 0 1 udp 379 ------- 0 0.0 1.0 37 37
+ 2.356738 0 1 udp 379 ------- 0 0.0 1.0 38 38
- 2.356738 0 1 udp 379 ------- 0 0.0 1.0 38 38
r 2.387058 0 1 udp 379 ------- 0 0.0 1.0 38 38
+ 2.440473 0 1 udp 379 ------- 0 0.0 1.0 39 39
- 2.440473 0 1 udp 379 ------- 0 0.0 1.0 39 39
+ 2.446444 0 1 udp 379 ------- 0 0.0 1.0 40 40
+ 2.449205 0 1 udp 379 ------- 0 0.0 1.0 41 41
+ 2.454956 0 1 udp 379 ------- 0 0.0 1.0 42 42
r 2.470793 0 1 udp 379 ------- 0 0.0 1.0 39 39
- 2.470793 0 1 udp 379 ------- 0 0.0 1.0 40 40
r 2.501113 0 1 udp 379 ------- 0 0.0 1.0 40 40
- 2.501113 0 1 udp 379 ------- 0 0.0 1.0 41 41
r 2.531433 0 1 udp 379 ------- 0 0.0 1.0 41 41
- 2.531433 0 1 udp 379 ------- 0 0.0 1.0 42 42
r 2.561753 0 1 udp 379 ------- 0 0.0 1.0 42 42
+ 2.564405 0 1 udp 379 ------- 0 0.0 1.0 43 43
- 2.564405 0 1 udp 379 ------- 0 0.0 1.0 43 43
r 2.594725 0 1 udp 379 ------- 0 0.0 1.0 43 43
+ 2.706425 0 1 udp 379 ------- 0 0.0 1.0 44 44
- 2.706425 0 1 udp 379 ------- 0 0.0 1.0 44 44
r 2.736745 0 1 udp 379 ------- 0 0.0 1.0 44 44
+ 2.932797 0 1 udp 379 ------- 0 0.0 1.0 45 45
- 2.932797 0 1 udp 379 ------- 0 0.0 1.0 45 45
+ 2.958754 0 1 udp 379 ------- 0 0.0 1.0 46 46
r 2.963117 0 1 udp 379 ------- 0 0.0 1.0 45 45
- 2.963117 0 1 udp 379 ------- 0 0.0 1.0 46 46
r 2.993437 0 1 udp 379 ------- 0 0.0 1.0 46 46
+ 3.013337 0 1 udp 379 ------- 0 0.0 1.0 47 47
- 3.013337 0 1 udp 379 ------- 0 0.0 1.0 47 47
r 3.043657 0 1 udp 379 ------- 0 0.0 1.0 47 47
+ 3.118073 0 1 udp 379 ------- 0 0.0 1.0 48 48
- 3.118073 0 1 udp 379 ------- 0 0.0 1.0 48 48
+ 3.1382 0 1 udp 379 ------- 0 0.0 1.0 49 49
r 3.148393 0 1 udp 379 ------- 0 0.0 1.0 48 48
- 3.148393 0 1 udp 379 ------- 0 0.0 1.0 49 49
r 3.178713 0 1 udp 379 ------- 0 0.0 1.0 49 49
+ 3.206135 0 1 udp 379 ------- 0 0.0 1.0 50 50
- 3.206135 0 1 udp 379 ------- 0 0.0 1.0 50 50
+ 3.224064 0 1 udp 379 ------- 0 0.0 1.0 51 51
r 3.236455 0 1 udp 379 ------- 0 0.0 1.0 50 50
- 3.236455 0 1 udp 379 ------- 0 0.0 1.0 51 51
+ 3.254428 0 1 udp 379 ------- 0 0.0 1.0 52 52
+ 3.26101 0 1 udp 379 ------- 0 0.0 1.0 53 53
r 3.266775 0 1 udp 379 ------- 0 0.0 1.0 51 51
- 3.266775 0 1 udp 379 ------- 0 0.0 1.0 52 52
r 3.297095 0 1 udp 379 ------- 0 0.0 1.0 52 52
- 3.297095 0 1 udp 379 ------- 0 0.0 1.0 53 53
r 3.327415 0 1 udp 379 ------- 0 0.0 1.0 53 53
+ 3.328015 0 1 udp 379 ------- 0 0.0 1.0 54 54
- 3.328015 0 1 udp 379 ------- 0 0.0 1.0 54 54
+ 3.357468 0 1 udp 379 ------- 0 0.0 1.0 55 55
r 3.358335 0 1 udp 379 ------- 0 0.0 1.0 54 54
- 3.358335 0 1 udp 379 ------- 0 0.0 1.0 55 55
r 3.388655 0 1 udp 379 ------- 0 0.0 1.0 55 55
+ 3.400171 0 1 udp 379 ------- 0 0.0 1.0 56 56
- 3.400171 0 1 udp 379 ------- 0 0.0 1.0 56 56
r 3.430491 0 1 udp 379 ------- 0 0.0 1.0 56 56
+ 3.579745 0 1 udp 379 ------- 0 0.0 1.0 57 57
- 3.579745 0 1 udp 379 ------- 0 0.0 1.0 57 57
r 3.610065 0 1 udp 379 ------- 0 0.0 1.0 57 57
+ 3.635586 0 1 udp 379 ------- 0 0.0 1.0 58 58
- 3.635586 0 1 udp 379 ------- 0 0.0 1.0 58 58
r 3.665906 0 1 udp 379 ------- 0 0.0 1.0 58 58
+ 3.719629 0 1 udp 379 ------- 0 0.0 1.0 59 59
- 3.719629 0 1 udp 379 ------- 0 0.0 1.0 59 59
+ 3.731734 0 1 udp 379 ------- 0 0.0 1.0 60 60
+ 3.734466 0 1 udp 379 ------- 0 0.0 1.0 61 61
+ 3.74736 0 1 udp 379 ------- 0 0.0 1.0 62 62
r 3.749949 0 1 udp 379 ------- 0 0.0 1.0 59 59
- 3.749949 0 1 udp 379 ------- 0 0.0 1.0 60 60
r 3.780269 0 1 udp 379 ------- 0 0.0 1.0 60 60
- 3.780269 0 1 udp 379 ------- 0 0.0 1.0 61 61
r 3.810589 0 1 udp 379 ------- 0 0.0 1.0 61 61
- 3.810589 0 1 udp 379 ------- 0 0.0 1.0 62 62
+ 3.826176 0 1 udp 379 ------- 0 0.0 1.0 63 63
r 3.840909 0 1 udp 379 ------- 0 0.0 1.0 62 62
- 3.840909 0 1 udp 379 ------- 0 0.0 1.0 63 63
+ 3.844372 0 1 udp 379 ------- 0 0.0 1.0 64 64
r 3.871229 0 1 udp 379 ------- 0 0.0 1.0 63 63
- 3.871229 0 1 udp 379 ------- 0 0.0 1.0 64 64
r 3.901549 0 1 udp 379 ------- 0 0.0 1.0 64 64
+ 3.930467 0 1 udp 379 ------- 0 0.0 1.0 65 65
- 3.930467 0 1 udp 379 ------- 0 0.0 1.0 65 65
+ 3.931681 0 1 udp 379 ------- 0 0.0 1.0 66 66
r 3.960787 0 1 udp 379 ------- 0 0.0 1.0 65 65
- 3.960787 0 1 udp 379 ------- 0 0.0 1.0 66 66
r 3.991107 0 1 udp 379 ------- 0 0.0 1.0 66 66
+ 4.05133 0 1 udp 379 ------- 0 0.0 1.0 67 67
- 4.05133 0 1 udp 379 ------- 0 0.0 1.0 67 67
r 4.08165 0 1 udp 379 ------- 0 0.0 1.0 67 67
+ 4.086822 0 1 udp 379 ------- 0 0.0 1.0 68 68
- 4.086822 0 1 udp 379 ------- 0 0.0 1.0 68 68
r 4.117142 0 1 udp 379 ------- 0 0.0 1.0 68 68
+ 4.236476 0 1 udp 379 ------- 0 0.0 1.0 69 69
- 4.236476 0 1 udp 379 ------- 0 0.0 1.0 69 69
+ 4.243721 0 1 udp 379 ------- 0 0.0 1.0 70 70
r 4.266796 0 1 udp 379 ------- 0 0.0 1.0 69 69
- 4.266796 0 1 udp 379 ------- 0 0.0 1.0 70 70
+ 4.275192 0 1 udp 379 ------- 0 0.0 1.0 71 71
+ 4.29058 0 1 udp 379 ------- 0 0.0 1.0 72 72
r 4.297116 0 1 udp 379 ------- 0 0.0 1.0 70 70
- 4.297116 0 1 udp 379 ------- 0 0.0 1.0 71 71
r 4.327436 0 1 udp 379 ------- 0 0.0 1.0 71 71
- 4.327436 0 1 udp 379 ------- 0 0.0 1.0 72 72
+ 4.33381 0 1 udp 379 ------- 0 0.0 1.0 73 73
r 4.357756 0 1 udp 379 ------- 0 0.0 1.0 72 72
- 4.357756 0 1 udp 379 ------- 0 0.0 1.0 73 73
r 4.388076 0 1 udp 379 ------- 0 0.0 1.0 73 73
+ 4.455218 0 1 udp 379 ------- 0 0.0 1.0 74 74
- 4.455218 0 1 udp 379 ------- 0 0.0 1.0 74 74
+ 4.465483 0 1 udp 379 ------- 0 0.0 1.0 75 75
+ 4.470593 0 1 udp 379 ------- 0 0.0 1.0 76 76
r 4.485538 0 1 udp 379 ------- 0 0.0 1.0 74 74
- 4.485538 0 1 udp 379 ------- 0 0.0 1.0 75 75
+ 4.486463 0 1 udp 379 ------- 0 0.0 1.0 77 77
+ 4.493159 0 1 udp 379 ------- 0 0.0 1.0 78 78
r 4.515858 0 1 udp 379 ------- 0 0.0 1.0 75 75
- 4.515858 0 1 udp 379 ------- 0 0.0 1.0 76 76
+ 4.519872 0 1 udp 379 ------- 0 0.0 1.0 79 79
+ 4.535209 0 1 udp 379 ------- 0 0.0 1.0 80 80
r 4.546178 0 1 udp 379 ------- 0 0.0 1.0 76 76
- 4.546178 0 1 udp 379 ------- 0 0.0 1.0 77 77
+ 4.54624 0 1 udp 379 ------- 0 0.0 1.0 81 81
r 4.576498 0 1 udp 379 ------- 0 0.0 1.0 77 77
- 4.576498 0 1 udp 379 ------- 0 0.0 1.0 78 78
+ 4.597873 0 1 udp 379 ------- 0 0.0 1.0 82 82
r 4.606818 0 1 udp 379 ------- 0 0.0 1.0 78 78
- 4.606818 0 1 udp 379 ------- 0 0.0 1.0 79 79
+ 4.627006 0 1 udp 379 ------- 0 0.0 1.0 83 83
r 4.637138 0 1 udp 379 ------- 0 0.0 1.0 79 79
- 4.637138 0 1 udp 379 ------- 0 0.0 1.0 80 80
+ 4.637199 0 1 udp 379 ------- 0 0.0 1.0 84 84
+ 4.649381 0 1 udp 379 ------- 0 0.0 1.0 85 85
r 4.667458 0 1 udp 379 ------- 0 0.0 1.0 80 80
- 4.667458 0 1 udp 379 ------- 0 0.0 1.0 81 81
+ 4.66989 0 1 udp 379 ------- 0 0.0 1.0 86 86
r 4.697778 0 1 udp 379 ------- 0 0.0 1.0 81 81
- 4.697778 0 1 udp 379 ------- 0 0.0 1.0 82 82
r 4.728098 0 1 udp 379 ------- 0 0.0 1.0 82 82
- 4.728098 0 1 udp 379 ------- 0 0.0 1.0 83 83
r 4.758418 0 1 udp 379 ------- 0 0.0 1.0 83 83
- 4.758418 0 1 udp 379 ------- 0 0.0 1.0 84 84
+ 4.76475 0 1 udp 379 ------- 0 0.0 1.0 87 87
r 4.788738 0 1 udp 379 ------- 0 0.0 1.0 84 84
- 4.788738 0 1 udp 379 ------- 0 0.0 1.0 85 85
+ 4.809774 0 1 udp 379 ------- 0 0.0 1.0 88 88
r 4.819058 0 1 udp 379 ------- 0 0.0 1.0 85 85
- 4.819058 0 1 udp 379 ------- 0 0.0 1.0 86 86
+ 4.840019 0 1 udp 379 ------- 0 0.0 1.0 89 89
r 4.849378 0 1 udp 379 ------- 0 0.0 1.0 86 86
- 4.849378 0 1 udp 379 ------- 0 0.0 1.0 87 87
r 4.879698 0 1 udp 379 ------- 0 0.0 1.0 87 87
- 4.879698 0 1 udp 379 ------- 0 0.0 1.0 88 88
+ 4.889247 0 1 udp 379 ------- 0 0.0 1.0 90 90
r 4.910018 0 1 udp 379 ------- 0 0.0 1.0 88 88
- 4.910018 0 1 udp 379 ------- 0 0.0 1.0 89 89
r 4.940338 0 1 udp 379 ------- 0 0.0 1.0 89 89
- 4.940338 0 1 udp 379 ------- 0 0.0 1.0 90 90
r 4.970658 0 1 udp 379 ------- 0 0.0 1.0 90 90
+ 5.321915 0 1 udp 379 ------- 0 0.0 1.0 91 91
- 5.321915 0 1 udp 379 ------- 0 0.0 1.0 91 91
r 5.352235 0 1 udp 379 ------- 0 0.0 1.0 91 91
+ 5.446103 0 1 udp 379 ------- 0 0.0 1.0 92 92
- 5.446103 0 1 udp 379 ------- 0 0.0 1.0 92 92
r 5.476423 0 1 udp 379 ------- 0 0.0 1.0 92 92
+ 5.501201 0 1 udp 379 ------- 0 0.0 1.0 93 93
- 5.501201 0 1 udp 379 ------- 0 0.0 1.0 93 93
+ 5.519344 0 1 udp 379 ------- 0 0.0 1.0 94 94
+ 5.523953 0 1 udp 379 ------- 0 0.0 1.0 95 95
r 5.531521 0 1 udp 379 ------- 0 0.0 1.0 93 93
- 5.531521 0 1 udp 379 ------- 0 0.0 1.0 94 94
r 5.561841 0 1 udp 379 ------- 0 0.0 1.0 94 94
- 5.561841 0 1 udp 379 ------- 0 0.0 1.0 95 95
r 5.592161 0 1 udp 379 ------- 0 0.0 1.0 95 95
+ 5.694831 0 1 udp 379 ------- 0 0.0 1.0 96 96
- 5.694831 0 1 udp 379 ------- 0 0.0 1.0 96 96
r 5.725151 0 1 udp 379 ------- 0 0.0 1.0 96 96
+ 5.74519 0 1 udp 379 ------- 0 0.0 1.0 97 97
- 5.74519 0 1 udp 379 ------- 0 0.0 1.0 97 97
r 5.77551 0 1 udp 379 ------- 0 0.0 1.0 97 97
+ 5.804564 0 1 udp 379 ------- 0 0.0 1.0 98 98
- 5.804564 0 1 udp 379 ------- 0 0.0 1.0 98 98
r 5.834884 0 1 udp 379 ------- 0 0.0 1.0 98 98
+ 6.0895 0 1 udp 379 ------- 0 0.0 1.0 99 99
- 6.0895 0 1 udp 379 ------- 0 0.0 1.0 99 99
r 6.11982 0 1 udp 379 ------- 0 0.0 1.0 99 99
+ 6.146201 0 1 udp 379 ------- 0 0.0 1.0 100 100
- 6.146201 0 1 udp 379 ------- 0 0.0 1.0 100 100
+ 6.152521 0 1 udp 379 ------- 0 0.0 1.0 101 101
+ 6.158913 0 1 udp 379 ------- 0 0.0 1.0 102 102
+ 6.169707 0 1 udp 379 ------- 0 0.0 1.0 103 103
r 6.176521 0 1 udp 379 ------- 0 0.0 1.0 100 100
- 6.176521 0 1 udp 379 ------- 0 0.0 1.0 101 101
r 6.206841 0 1 udp 379 ------- 0 0.0 1.0 101 101
- 6.206841 0 1 udp 379 ------- 0 0.0 1.0 102 102
r 6.237161 0 1 udp 379 ------- 0 0.0 1.0 102 102
- 6.237161 0 1 udp 379 ------- 0 0.0 1.0 103 103
+ 6.257948 0 1 udp 379 ------- 0 0.0 1.0 104 104
r 6.267481 0 1 udp 379 ------- 0 0.0 1.0 103 103
- 6.267481 0 1 udp 379 ------- 0 0.0 1.0 104 104
r 6.297801 0 1 udp 379 ------- 0 0.0 1.0 104 104
+ 6.430141 0 1 udp 379 ------- 0 0.0 1.0 105 105
- 6.430141 0 1 udp 379 ------- 0 0.0 1.0 105 105
+ 6.444177 0 1 udp 379 ------- 0 0.0 1.0 106 106
r 6.460461 0 1 udp 379 ------- 0 0.0 1.0 105 105
- 6.460461 0 1 udp 379 ------- 0 0.0 1.0 106 106
+ 6.468454 0 1 udp 379 ------- 0 0.0 1.0 107 107
+ 6.480264 0 1 udp 379 ------- 0 0.0 1.0 108 108
r 6.490781 0 1 udp 379 ------- 0 0.0 1.0 106 106
- 6.490781 0 1 udp 379 ------- 0 0.0 1.0 107 107
+ 6.512889 0 1 udp 379 ------- 0 0.0 1.0 109 109
r 6.521101 0 1 udp 379 ------- 0 0.0 1.0 107 107
- 6.521101 0 1 udp 379 ------- 0 0.0 1.0 108 108
r 6.551421 0 1 udp 379 ------- 0 0.0 1.0 108 108
- 6.551421 0 1 udp 379 ------- 0 0.0 1.0 109 109
+ 6.552674 0 1 udp 379 ------- 0 0.0 1.0 110 110
r 6.581741 0 1 udp 379 ------- 0 0.0 1.0 109 109
- 6.581741 0 1 udp 379 ------- 0 0.0 1.0 110 110
r 6.612061 0 1 udp 379 ------- 0 0.0 1.0 110 110
+ 6.631278 0 1 udp 379 ------- 0 0.0 1.0 111 111
- 6.631278 0 1 udp 379 ------- 0 0.0 1.0 111 111
r 6.661598 0 1 udp 379 ------- 0 0.0 1.0 111 111
+ 6.838045 0 1 udp 379 ------- 0 0.0 1.0 112 112
- 6.838045 0 1 udp 379 ------- 0 0.0 1.0 112 112
r 6.868365 0 1 udp 379 ------- 0 0.0 1.0 112 112
+ 6.879104 0 1 udp 379 ------- 0 0.0 1.0 113 113
- 6.879104 0 1 udp 379 ------- 0 0.0 1.0 113 113
r 6.909424 0 1 udp 379 ------- 0 0.0 1.0 113 113
+ 6.920469 0 1 udp 379 ------- 0 0.0 1.0 114 114
- 6.920469 0 1 udp 379 ------- 0 0.0 1.0 114 114
r 6.950789 0 1 udp 379 ------- 0 0.0 1.0 114 114
+ 6.975719 0 1 udp 379 ------- 0 0.0 1.0 115 115
- 6.975719 0 1 udp 379 ------- 0 0.0 1.0 115 115
r 7.006039 0 1 udp 379 ------- 0 0.0 1.0 115 115
+ 7.082076 0 1 udp 379 ------- 0 0.0 1.0 116 116
- 7.082076 0 1 udp 379 ------- 0 0.0 1.0 116 116
+ 7.087377 0 1 udp 379 ------- 0 0.0 1.0 117 117
r 7.112396 0 1 udp 379 ------- 0 0.0 1.0 116 116
- 7.112396 0 1 udp 379 ------- 0 0.0 1.0 117 117
r 7.142716 0 1 udp 379 ------- 0 0.0 1.0 117 117
+ 7.16443 0 1 udp 379 ------- 0 0.0 1.0 118 118
- 7.16443 0 1 udp 379 ------- 0 0.0 1.0 118 118
r 7.19475 0 1 udp 379 ------- 0 0.0 1.0 118 118
+ 7.206582 0 1 udp 379 ------- 0 0.0 1.0 119 119
- 7.206582 0 1 udp 379 ------- 0 0.0 1.0 119 119
r 7.236902 0 1 udp 379 ------- 0 0.0 1.0 119 119
+ 7.249609 0 1 udp 379 ------- 0 0.0 1.0 120 120
- 7.249609 0 1 udp 379 ------- 0 0.0 1.0 120 120
r 7.279929 0 1 udp 379 ------- 0 0.0 1.0 120 120
+ 7.294497 0 1 udp 379 ------- 0 0.0 1.0 121 121
- 7.294497 0 1 udp 379 ------- 0 0.0 1.0 121 121
+ 7.309847 0 1 udp 379 ------- 0 0.0 1.0 122 122
r 7.324817 0 1 udp 379 ------- 0 0.0 1.0 121 121
- 7.324817 0 1 udp 379 ------- 0 0.0 1.0 122 122
+ 7.346051 0 1 udp 379 ------- 0 0.0 1.0 123 123
+ 7.351497 0 1 udp 379 ------- 0 0.0 1.0 124 124
r 7.355137 0 1 udp 379 ------- 0 0.0 1.0 122 122
- 7.355137 0 1 udp 379 ------- 0 0.0 1.0 123 123
+ 7.375166 0 1 udp 379 ------- 0 0.0 1.0 125 125
+ 7.383246 0 1 udp 379 ------- 0 0.0 1.0 126 126
r 7.385457 0 1 udp 379 ------- 0 0.0 1.0 123 123
- 7.385457 0 1 udp 379 ------- 0 0.0 1.0 124 124
r 7.415777 0 1 udp 379 ------- 0 0.0 1.0 124 124
- 7.415777 0 1 udp 379 ------- 0 0.0 1.0 125 125
r 7.446097 0 1 udp 379 ------- 0 0.0 1.0 125 125
- 7.446097 0 1 udp 379 ------- 0 0.0 1.0 126 126
+ 7.475342 0 1 udp 379 ------- 0 0.0 1.0 127 127
r 7.476417 0 1 udp 379 ------- 0 0.0 1.0 126 126
- 7.476417 0 1 udp 379 ------- 0 0.0 1.0 127 127
r 7.506737 0 1 udp 379 ------- 0 0.0 1.0 127 127
+ 7.547635 0 1 udp 379 ------- 0 0.0 1.0 128 128
- 7.547635 0 1 udp 379 ------- 0 0.0 1.0 128 128
r 7.577955 0 1 udp 379 ------- 0 0.0 1.0 128 128
+ 7.684698 0 1 udp 379 ------- 0 0.0 1.0 129 129
- 7.684698 0 1 udp 379 ------- 0 0.0 1.0 129 129
r 7.715018 0 1 udp 379 ------- 0 0.0 1.0 129 129
+ 7.771367 0 1 udp 379 ------- 0 0.0 1.0 130 130
- 7.771367 0 1 udp 379 ------- 0 0.0 1.0 130 130
+ 7.778253 0 1 udp 379 ------- 0 0.0 1.0 131 131
r 7.801687 0 1 udp 379 ------- 0 0.0 1.0 130 130
- 7.801687 0 1 udp 379 ------- 0 0.0 1.0 131 131
r 7.832007 0 1 udp 379 ------- 0 0.0 1.0 131 131
+ 7.939822 0 1 udp 379 ------- 0 0.0 1.0 132 132
- 7.939822 0 1 udp 379 ------- 0 0.0 1.0 132 132
+ 7.967187 0 1 udp 379 ------- 0 0.0 1.0 133 133
r 7.970142 0 1 udp 379 ------- 0 0.0 1.0 132 132
- 7.970142 0 1 udp 379 ------- 0 0.0 1.0 133 133
+ 7.98458 0 1 udp 379 ------- 0 0.0 1.0 134 134
r 8.000462 0 1 udp 379 ------- 0 0.0 1.0 133 133
- 8.000462 0 1 udp 379 ------- 0 0.0 1.0 134 134
r 8.030782 0 1 udp 379 ------- 0 0.0 1.0 134 134
+ 8.058757 0 1 udp 379 ------- 0 0.0 1.0 135 135
- 8.058757 0 1 udp 379 ------- 0 0.0 1.0 135 135
+ 8.068059 0 1 udp 379 ------- 0 0.0 1.0 136 136
r 8.089077 0 1 udp 379 ------- 0 0.0 1.0 135 135
- 8.089077 0 1 udp 379 ------- 0 0.0 1.0 136 136
r 8.119397 0 1 udp 379 ------- 0 0.0 1.0 136 136
+ 8.209827 0 1 udp 379 ------- 0 0.0 1.0 137 137
- 8.209827 0 1 udp 379 ------- 0 0.0 1.0 137 137
r 8.240147 0 1 udp 379 ------- 0 0.0 1.0 137 137
+ 8.263773 0 1 udp 379 ------- 0 0.0 1.0 138 138
- 8.263773 0 1 udp 379 ------- 0 0.0 1.0 138 138
+ 8.275304 0 1 udp 379 ------- 0 0.0 1.0 139 139
r 8.294093 0 1 udp 379 ------- 0 0.0 1.0 138 138
- 8.294093 0 1 udp 379 ------- 0 0.0 1.0 139 139
+ 8.297847 0 1 udp 379 ------- 0 0.0 1.0 140 140
r 8.324413 0 1 udp 379 ------- 0 0.0 1.0 139 139
- 8.324413 0 1 udp 379 ------- 0 0.0 1.0 140 140
+ 8.339651 0 1 udp 379 ------- 0 0.0 1.0 141 141
r 8.354733 0 1 udp 379 ------- 0 0.0 1.0 140 140
- 8.354733 0 1 udp 379 ------- 0 0.0 1.0 141 141
r 8.385053 0 1 udp 379 ------- 0 0.0 1.0 141 141
+ 8.413357 0 1 udp 379 ------- 0 0.0 1.0 142 142
- 8.413357 0 1 udp 379 ------- 0 0.0 1.0 142 142
r 8.443677 0 1 udp 379 ------- 0 0.0 1.0 142 142
+ 8.454197 0 1 udp 379 ------- 0 0.0 1.0 143 143
- 8.454197 0 1 udp 379 ------- 0 0.0 1.0 143 143
+ 8.457295 0 1 udp 379 ------- 0 0.0 1.0 144 144
r 8.484517 0 1 udp 379 ------- 0 0.0 1.0 143 143
- 8.484517 0 1 udp 379 ------- 0 0.0 1.0 144 144
+ 8.496125 0 1 udp 379 ------- 0 0.0 1.0 145 145
+ 8.501313 0 1 udp 379 ------- 0 0.0 1.0 146 146
+ 8.503473 0 1 udp 379 ------- 0 0.0 1.0 147 147
+ 8.508425 0 1 udp 379 ------- 0 0.0 1.0 148 148
r 8.514837 0 1 udp 379 ------- 0 0.0 1.0 144 144
- 8.514837 0 1 udp 379 ------- 0 0.0 1.0 145 145
r 8.545157 0 1 udp 379 ------- 0 0.0 1.0 145 145
- 8.545157 0 1 udp 379 ------- 0 0.0 1.0 146 146
r 8.575477 0 1 udp 379 ------- 0 0.0 1.0 146 146
- 8.575477 0 1 udp 379 ------- 0 0.0 1.0 147 147
+ 8.602686 0 1 udp 379 ------- 0 0.0 1.0 149 149
+ 8.605514 0 1 udp 379 ------- 0 0.0 1.0 150 150
r 8.605797 0 1 udp 379 ------- 0 0.0 1.0 147 147
- 8.605797 0 1 udp 379 ------- 0 0.0 1.0 148 148
r 8.636117 0 1 udp 379 ------- 0 0.0 1.0 148 148
- 8.636117 0 1 udp 379 ------- 0 0.0 1.0 149 149
+ 8.636302 0 1 udp 379 ------- 0 0.0 1.0 151 151
r 8.666437 0 1 udp 379 ------- 0 0.0 1.0 149 149
- 8.666437 0 1 udp 379 ------- 0 0.0 1.0 150 150
+ 8.667543 0 1 udp 379 ------- 0 0.0 1.0 152 152
r 8.696757 0 1 udp 379 ------- 0 0.0 1.0 150 150
- 8.696757 0 1 udp 379 ------- 0 0.0 1.0 151 151
r 8.727077 0 1 udp 379 ------- 0 0.0 1.0 151 151
- 8.727077 0 1 udp 379 ------- 0 0.0 1.0 152 152
r 8.757397 0 1 udp 379 ------- 0 0.0 1.0 152 152
+ 8.803082 0 1 udp 379 ------- 0 0.0 1.0 153 153
- 8.803082 0 1 udp 379 ------- 0 0.0 1.0 153 153
+ 8.804511 0 1 udp 379 ------- 0 0.0 1.0 154 154
r 8.833402 0 1 udp 379 ------- 0 0.0 1.0 153 153
- 8.833402 0 1 udp 379 ------- 0 0.0 1.0 154 154
+ 8.837397 0 1 udp 379 ------- 0 0.0 1.0 155 155
+ 8.843733 0 1 udp 379 ------- 0 0.0 1.0 156 156
+ 8.859483 0 1 udp 379 ------- 0 0.0 1.0 157 157
r 8.863722 0 1 udp 379 ------- 0 0.0 1.0 154 154
- 8.863722 0 1 udp 379 ------- 0 0.0 1.0 155 155
r 8.894042 0 1 udp 379 ------- 0 0.0 1.0 155 155
- 8.894042 0 1 udp 379 ------- 0 0.0 1.0 156 156
r 8.924362 0 1 udp 379 ------- 0 0.0 1.0 156 156
- 8.924362 0 1 udp 379 ------- 0 0.0 1.0 157 157
+ 8.926289 0 1 udp 379 ------- 0 0.0 1.0 158 158
r 8.954682 0 1 udp 379 ------- 0 0.0 1.0 157 157
- 8.954682 0 1 udp 379 ------- 0 0.0 1.0 158 158
+ 8.963038 0 1 udp 379 ------- 0 0.0 1.0 159 159
+ 8.977443 0 1 udp 379 ------- 0 0.0 1.0 160 160
r 8.985002 0 1 udp 379 ------- 0 0.0 1.0 158 158
- 8.985002 0 1 udp 379 ------- 0 0.0 1.0 159 159
r 9.015322 0 1 udp 379 ------- 0 0.0 1.0 159 159
- 9.015322 0 1 udp 379 ------- 0 0.0 1.0 160 160
r 9.045642 0 1 udp 379 ------- 0 0.0 1.0 160 160
+ 9.056465 0 1 udp 379 ------- 0 0.0 1.0 161 161
- 9.056465 0 1 udp 379 ------- 0 0.0 1.0 161 161
+ 9.07609 0 1 udp 379 ------- 0 0.0 1.0 162 162
r 9.086785 0 1 udp 379 ------- 0 0.0 1.0 161 161
- 9.086785 0 1 udp 379 ------- 0 0.0 1.0 162 162
+ 9.097074 0 1 udp 379 ------- 0 0.0 1.0 163 163
r 9.117105 0 1 udp 379 ------- 0 0.0 1.0 162 162
- 9.117105 0 1 udp 379 ------- 0 0.0 1.0 163 163
r 9.147425 0 1 udp 379 ------- 0 0.0 1.0 163 163
+ 9.188126 0 1 udp 379 ------- 0 0.0 1.0 164 164
- 9.188126 0 1 udp 379 ------- 0 0.0 1.0 164 164
r 9.218446 0 1 udp 379 ------- 0 0.0 1.0 164 164
+ 9.254575 0 1 udp 379 ------- 0 0.0 1.0 165 165
- 9.254575 0 1 udp 379 ------- 0 0.0 1.0 165 165
r 9.284895 0 1 udp 379 ------- 0 0.0 1.0 165 165
+ 9.303134 0 1 udp 379 ------- 0 0.0 1.0 166 166
- 9.303134 0 1 udp 379 ------- 0 0.0 1.0 166 166
+ 9.327707 0 1 udp 379 ------- 0 0.0 1.0 167 167
r 9.333454 0 1 udp 379 ------- 0 0.0 1.0 166 166
- 9.333454 0 1 udp 379 ------- 0 0.0 1.0 167 167
+ 9.348829 0 1 udp 379 ------- 0 0.0 1.0 168 168
+ 9.356688 0 1 udp 379 ------- 0 0.0 1.0 169 169
r 9.363774 0 1 udp 379 ------- 0 0.0 1.0 167 167
- 9.363774 0 1 udp 379 ------- 0 0.0 1.0 168 168
r 9.394094 0 1 udp 379 ------- 0 0.0 1.0 168 168
- 9.394094 0 1 udp 379 ------- 0 0.0 1.0 169 169
+ 9.42026 0 1 udp 379 ------- 0 0.0 1.0 170 170
r 9.424414 0 1 udp 379 ------- 0 0.0 1.0 169 169
- 9.424414 0 1 udp 379 ------- 0 0.0 1.0 170 170
r 9.454734 0 1 udp 379 ------- 0 0.0 1.0 170 170
+ 9.509913 0 1 udp 379 ------- 0 0.0 1.0 171 171
- 9.509913 0 1 udp 379 ------- 0 0.0 1.0 171 171
r 9.540233 0 1 udp 379 ------- 0 0.0 1.0 171 171
+ 9.592191 0 1 udp 379 ------- 0 0.0 1.0 172 172
- 9.592191 0 1 udp 379 ------- 0 0.0 1.0 172 172
r 9.622511 0 1 udp 379 ------- 0 0.0 1.0 172 172
+ 9.751206 0 1 udp 379 ------- 0 0.0 1.0 173 173
- 9.751206 0 1 udp 379 ------- 0 0.0 1.0 173 173
r 9.781526 0 1 udp 379 ------- 0 0.0 1.0 173 173
+ 9.879146 0 1 udp 379 ------- 0 0.0 1.0 174 174
- 9.879146 0 1 udp 379 ------- 0 0.0 1.0 174 174
r 9.909466 0 1 udp 379 ------- 0 0.0 1.0 174 174
+ 9.985404 0 1 udp 379 ------- 0 0.0 1.0 175 175
- 9.985404 0 1 udp 379 ------- 0 0.0 1.0 175 175
r 10.015724 0 1 udp 379 ------- 0 0.0 1.0 175 175
+ 10.13142 0 1 udp 379 ------- 0 0.0 1.0 176 176
- 10.13142 0 1 udp 379 ------- 0 0.0 1.0 176 176
r 10.16174 0 1 udp 379 ------- 0 0.0 1.0 176 176
+ 10.182623 0 1 udp 379 ------- 0 0.0 1.0 177 177
- 10.182623 0 1 udp 379 ------- 0 0.0 1.0 177 177
r 10.212943 0 1 udp 379 ------- 0 0.0 1.0 177 177
+ 10.259633 0 1 udp 379 ------- 0 0.0 1.0 178 178
- 10.259633 0 1 udp 379 ------- 0 0.0 1.0 178 178
r 10.289953 0 1 udp 379 ------- 0 0.0 1.0 178 178
+ 10.40434 0 1 udp 379 ------- 0 0.0 1.0 179 179
- 10.40434 0 1 udp 379 ------- 0 0.0 1.0 179 179
+ 10.406703 0 1 udp 379 ------- 0 0.0 1.0 180 180
+ 10.416491 0 1 udp 379 ------- 0 0.0 1.0 181 181
+ 10.433731 0 1 udp 379 ------- 0 0.0 1.0 182 182
r 10.43466 0 1 udp 379 ------- 0 0.0 1.0 179 179
- 10.43466 0 1 udp 379 ------- 0 0.0 1.0 180 180
r 10.46498 0 1 udp 379 ------- 0 0.0 1.0 180 180
- 10.46498 0 1 udp 379 ------- 0 0.0 1.0 181 181
+ 10.475888 0 1 udp 379 ------- 0 0.0 1.0 183 183
+ 10.485201 0 1 udp 379 ------- 0 0.0 1.0 184 184
r 10.4953 0 1 udp 379 ------- 0 0.0 1.0 181 181
- 10.4953 0 1 udp 379 ------- 0 0.0 1.0 182 182
r 10.52562 0 1 udp 379 ------- 0 0.0 1.0 182 182
- 10.52562 0 1 udp 379 ------- 0 0.0 1.0 183 183
+ 10.531922 0 1 udp 379 ------- 0 0.0 1.0 185 185
r 10.55594 0 1 udp 379 ------- 0 0.0 1.0 183 183
- 10.55594 0 1 udp 379 ------- 0 0.0 1.0 184 184
+ 10.56241 0 1 udp 379 ------- 0 0.0 1.0 186 186
r 10.58626 0 1 udp 379 ------- 0 0.0 1.0 184 184
- 10.58626 0 1 udp 379 ------- 0 0.0 1.0 185 185
r 10.61658 0 1 udp 379 ------- 0 0.0 1.0 185 185
- 10.61658 0 1 udp 379 ------- 0 0.0 1.0 186 186
r 10.6469 0 1 udp 379 ------- 0 0.0 1.0 186 186
+ 10.664482 0 1 udp 379 ------- 0 0.0 1.0 187 187
- 10.664482 0 1 udp 379 ------- 0 0.0 1.0 187 187
+ 10.691699 0 1 udp 379 ------- 0 0.0 1.0 188 188
r 10.694802 0 1 udp 379 ------- 0 0.0 1.0 187 187
- 10.694802 0 1 udp 379 ------- 0 0.0 1.0 188 188
r 10.725122 0 1 udp 379 ------- 0 0.0 1.0 188 188
+ 10.735429 0 1 udp 379 ------- 0 0.0 1.0 189 189
- 10.735429 0 1 udp 379 ------- 0 0.0 1.0 189 189
+ 10.744934 0 1 udp 379 ------- 0 0.0 1.0 190 190
+ 10.755724 0 1 udp 379 ------- 0 0.0 1.0 191 191
+ 10.763418 0 1 udp 379 ------- 0 0.0 1.0 192 192
r 10.765749 0 1 udp 379 ------- 0 0.0 1.0 189 189
- 10.765749 0 1 udp 379 ------- 0 0.0 1.0 190 190
r 10.796069 0 1 udp 379 ------- 0 0.0 1.0 190 190
- 10.796069 0 1 udp 379 ------- 0 0.0 1.0 191 191
r 10.826389 0 1 udp 379 ------- 0 0.0 1.0 191 191
- 10.826389 0 1 udp 379 ------- 0 0.0 1.0 192 192
r 10.856709 0 1 udp 379 ------- 0 0.0 1.0 192 192
+ 11.045767 0 1 udp 379 ------- 0 0.0 1.0 193 193
- 11.045767 0 1 udp 379 ------- 0 0.0 1.0 193 193
+ 11.057323 0 1 udp 379 ------- 0 0.0 1.0 194 194
r 11.076087 0 1 udp 379 ------- 0 0.0 1.0 193 193
- 11.076087 0 1 udp 379 ------- 0 0.0 1.0 194 194
r 11.106407 0 1 udp 379 ------- 0 0.0 1.0 194 194
+ 11.186127 0 1 udp 379 ------- 0 0.0 1.0 195 195
- 11.186127 0 1 udp 379 ------- 0 0.0 1.0 195 195
r 11.216447 0 1 udp 379 ------- 0 0.0 1.0 195 195
+ 11.26383 0 1 udp 379 ------- 0 0.0 1.0 196 196
- 11.26383 0 1 udp 379 ------- 0 0.0 1.0 196 196
+ 11.272649 0 1 udp 379 ------- 0 0.0 1.0 197 197
r 11.29415 0 1 udp 379 ------- 0 0.0 1.0 196 196
- 11.29415 0 1 udp 379 ------- 0 0.0 1.0 197 197
+ 11.309635 0 1 udp 379 ------- 0 0.0 1.0 198 198
r 11.32447 0 1 udp 379 ------- 0 0.0 1.0 197 197
- 11.32447 0 1 udp 379 ------- 0 0.0 1.0 198 198
r 11.35479 0 1 udp 379 ------- 0 0.0 1.0 198 198
+ 11.401534 0 1 udp 379 ------- 0 0.0 1.0 199 199
- 11.401534 0 1 udp 379 ------- 0 0.0 1.0 199 199
r 11.431854 0 1 udp 379 ------- 0 0.0 1.0 199 199
+ 11.467046 0 1 udp 379 ------- 0 0.0 1.0 200 200
- 11.467046 0 1 udp 379 ------- 0 0.0 1.0 200 200
r 11.497366 0 1 udp 379 ------- 0 0.0 1.0 200 200
+ 11.662811 0 1 udp 379 ------- 0 0.0 1.0 201 201
- 11.662811 0 1 udp 379 ------- 0 0.0 1.0 201 201
+ 11.680348 0 1 udp 379 ------- 0 0.0 1.0 202 202
r 11.693131 0 1 udp 379 ------- 0 0.0 1.0 201 201
- 11.693131 0 1 udp 379 ------- 0 0.0 1.0 202 202
+ 11.722329 0 1 udp 379 ------- 0 0.0 1.0 203 203
r 11.723451 0 1 udp 379 ------- 0 0.0 1.0 202 202
- 11.723451 0 1 udp 379 ------- 0 0.0 1.0 203 203
r 11.753771 0 1 udp 379 ------- 0 0.0 1.0 203 203
+ 11.758258 0 1 udp 379 ------- 0 0.0 1.0 204 204
- 11.758258 0 1 udp 379 ------- 0 0.0 1.0 204 204
r 11.788578 0 1 udp 379 ------- 0 0.0 1.0 204 204
+ 11.817149 0 1 udp 379 ------- 0 0.0 1.0 205 205
- 11.817149 0 1 udp 379 ------- 0 0.0 1.0 205 205
r 11.847469 0 1 udp 379 ------- 0 0.0 1.0 205 205
+ 12.058974 0 1 udp 379 ------- 0 0.0 1.0 206 206
- 12.058974 0 1 udp 379 ------- 0 0.0 1.0 206 206
+ 12.077534 0 1 udp 379 ------- 0 0.0 1.0 207 207
r 12.089294 0 1 udp 379 ------- 0 0.0 1.0 206 206
- 12.089294 0 1 udp 379 ------- 0 0.0 1.0 207 207
r 12.119614 0 1 udp 379 ------- 0 0.0 1.0 207 207
+ 12.14417 0 1 udp 379 ------- 0 0.0 1.0 208 208