+ 0.0001 0 1 udp 379 ------- 0 0.0 1.0 0 0
- 0.0001 0 1 udp 379 ------- 0 0.0 1.0 0 0
r 0.03042 0 1 udp 379 ------- 0 0.0 1.0 0 0
+ 0.403525 0 1 udp 379 ------- 0 0.0 1.0 1 1
- 0.403525 0 1 udp 379 ------- 0 0.0 1.0 1 1
+ 0.433181 0 1 udp 379 ------- 0 0.0 1.0 2 2
r 0.433845 0 1 udp 379 ------- 0 0.0 1.0 1 1
- 0.433845 0 1 udp 379 ------- 0 0.0 1.0 2 2
r 0.464165 0 1 udp 379 ------- 0 0.0 1.0 2 2
+ 0.648039 0 1 udp 379 ------- 0 0.0 1.0 3 3
- 0.648039 0 1 udp 379 ------- 0 0.0 1.0 3 3
r 0.678359 0 1 udp 379 ------- 0 0.0 1.0 3 3
+ 0.770717 0 1 udp 379 ------- 0 0.0 1.0 4 4
- 0.770717 0 1 udp 379 ------- 0 0.0 1.0 4 4
r 0.801037 0 1 udp 379 ------- 0 0.0 1.0 4 4
+ 0.812046 0 1 udp 379 ------- 0 0.0 1.0 5 5
- 0.812046 0 1 udp 379 ------- 0 0.0 1.0 5 5
+ 0.82337 0 1 udp 379 ------- 0 0.0 1.0 6 6
r 0.842366 0 1 udp 379 ------- 0 0.0 1.0 5 5
- 0.842366 0 1 udp 379 ------- 0 0.0 1.0 6 6
r 0.872686 0 1 udp 379 ------- 0 0.0 1.0 6 6
+ 0.88204 0 1 udp 379 ------- 0 0.0 1.0 7 7
- 0.88204 0 1 udp 379 ------- 0 0.0 1.0 7 7
+ 0.89228 0 1 udp 379 ------- 0 0.0 1.0 8 8
r 0.91236 0 1 udp 379 ------- 0 0.0 1.0 7 7
- 0.91236 0 1 udp 379 ------- 0 0.0 1.0 8 8
r 0.94268 0 1 udp 379 ------- 0 0.0 1.0 8 8
+ 0.965506 0 1 udp 379 ------- 0 0.0 1.0 9 9
- 0.965506 0 1 udp 379 ------- 0 0.0 1.0 9 9
+ 0.988135 0 1 udp 379 ------- 0 0.0 1.0 10 10
r 0.995826 0 1 udp 379 ------- 0 0.0 1.0 9 9
- 0.995826 0 1 udp 379 ------- 0 0.0 1.0 10 10
r 1.026146 0 1 udp 379 ------- 0 0.0 1.0 10 10
+ 1.047436 0 1 udp 379 ------- 0 0.0 1.0 11 11
- 1.047436 0 1 udp 379 ------- 0 0.0 1.0 11 11
+ 1.056463 0 1 udp 379 ------- 0 0.0 1.0 12 12
r 1.077756 0 1 udp 379 ------- 0 0.0 1.0 11 11
- 1.077756 0 1 udp 379 ------- 0 0.0 1.0 12 12
r 1.108076 0 1 udp 379 ------- 0 0.0 1.0 12 12
+ 1.147726 0 1 udp 379 ------- 0 0.0 1.0 13 13
- 1.147726 0 1 udp 379 ------- 0 0.0 1.0 13 13
r 1.178046 0 1 udp 379 ------- 0 0.0 1.0 13 13
+ 1.306885 0 1 udp 379 ------- 0 0.0 1.0 14 14
- 1.306885 0 1 udp 379 ------- 0 0.0 1.0 14 14
+ 1.329419 0 1 udp 379 ------- 0 0.0 1.0 15 15
r 1.337205 0 1 udp 379 ------- 0 0.0 1.0 14 14
- 1.337205 0 1 udp 379 ------- 0 0.0 1.0 15 15
r 1.367525 0 1 udp 379 ------- 0 0.0 1.0 15 15
+ 1.439179 0 1 udp 379 ------- 0 0.0 1.0 16 16
- 1.439179 0 1 udp 379 ------- 0 0.0 1.0 16 16
+ 1.446812 0 1 udp 379 ------- 0 0.0 1.0 17 17
r 1.469499 0 1 udp 379 ------- 0 0.0 1.0 16 16
- 1.469499 0 1 udp 379 ------- 0 0.0 1.0 17 17
+ 1.490188 0 1 udp 379 ------- 0 0.0 1.0 18 18
r 1.499819 0 1 udp 379 ------- 0 0.0 1.0 17 17
- 1.499819 0 1 udp 379 ------- 0 0.0 1.0 18 18
r 1.530139 0 1 udp 379 ------- 0 0.0 1.0 18 18
+ 1.578273 0 1 udp 379 ------- 0 0.0 1.0 19 19
- 1.578273 0 1 udp 379 ------- 0 0.0 1.0 19 19
r 1.608593 0 1 udp 379 ------- 0 0.0 1.0 19 19
+ 1.697615 0 1 udp 379 ------- 0 0.0 1.0 20 20
- 1.697615 0 1 udp 379 ------- 0 0.0 1.0 20 20
+ 1.708443 0 1 udp 379 ------- 0 0.0 1.0 21 21
r 1.727935 0 1 udp 379 ------- 0 0.0 1.0 20 20
- 1.727935 0 1 udp 379 ------- 0 0.0 1.0 21 21
r 1.758255 0 1 udp 379 ------- 0 0.0 1.0 21 21
+ 1.761647 0 1 udp 379 ------- 0 0.0 1.0 22 22
- 1.761647 0 1 udp 379 ------- 0 0.0 1.0 22 22
r 1.791967 0 1 udp 379 ------- 0 0.0 1.0 22 22
+ 1.830053 0 1 udp 379 ------- 0 0.0 1.0 23 23
- 1.830053 0 1 udp 379 ------- 0 0.0 1.0 23 23
r 1.860373 0 1 udp 379 ------- 0 0.0 1.0 23 23
+ 1.875246 0 1 udp 379 ------- 0 0.0 1.0 24 24
- 1.875246 0 1 udp 379 ------- 0 0.0 1.0 24 24
r 1.905566 0 1 udp 379 ------- 0 0.0 1.0 24 24
+ 1.908404 0 1 udp 379 ------- 0 0.0 1.0 25 25
- 1.908404 0 1 udp 379 ------- 0 0.0 1.0 25 25
r 1.938724 0 1 udp 379 ------- 0 0.0 1.0 25 25
+ 1.946955 0 1 udp 379 ------- 0 0.0 1.0 26 26
- 1.946955 0 1 udp 379 ------- 0 0.0 1.0 26 26
+ 1.965527 0 1 udp 379 ------- 0 0.0 1.0 27 27
+ 1.973023 0 1 udp 379 ------- 0 0.0 1.0 28 28
r 1.977275 0 1 udp 379 ------- 0 0.0 1.0 26 26
- 1.977275 0 1 udp 379 ------- 0 0.0 1.0 27 27
+ 1.98184 0 1 udp 379 ------- 0 0.0 1.0 29 29
r 2.007595 0 1 udp 379 ------- 0 0.0 1.0 27 27
- 2.007595 0 1 udp 379 ------- 0 0.0 1.0 28 28
r 2.037915 0 1 udp 379 ------- 0 0.0 1.0 28 28
- 2.037915 0 1 udp 379 ------- 0 0.0 1.0 29 29
+ 2.058967 0 1 udp 379 ------- 0 0.0 1.0 30 30
r 2.068235 0 1 udp 379 ------- 0 0.0 1.0 29 29
- 2.068235 0 1 udp 379 ------- 0 0.0 1.0 30 30
r 2.098555 0 1 udp 379 ------- 0 0.0 1.0 30 30
+ 2.130786 0 1 udp 379 ------- 0 0.0 1.0 31 31
- 2.130786 0 1 udp 379 ------- 0 0.0 1.0 31 31
+ 2.138929 0 1 udp 379 ------- 0 0.0 1.0 32 32
+ 2.158604 0 1 udp 379 ------- 0 0.0 1.0 33 33
r 2.161106 0 1 udp 379 ------- 0 0.0 1.0 31 31
- 2.161106 0 1 udp 379 ------- 0 0.0 1.0 32 32
+ 2.172316 0 1 udp 379 ------- 0 0.0 1.0 34 34
+ 2.177361 0 1 udp 379 ------- 0 0.0 1.0 35 35
r 2.191426 0 1 udp 379 ------- 0 0.0 1.0 32 32
- 2.191426 0 1 udp 379 ------- 0 0.0 1.0 33 33
r 2.221746 0 1 udp 379 ------- 0 0.0 1.0 33 33
- 2.221746 0 1 udp 379 ------- 0 0.0 1.0 34 34
+ 2.222946 0 1 udp 379 ------- 0 0.0 1.0 36 36
r 2.252066 0 1 udp 379 ------- 0 0.0 1.0 34 34
- 2.252066 0 1 udp 379 ------- 0 0.0 1.0 35 35
r 2.282386 0 1 udp 379 ------- 0 0.0 1.0 35 35
- 2.282386 0 1 udp 379 ------- 0 0.0 1.0 36 36
r 2.312706 0 1 udp 379 ------- 0 0.0 1.0 36 36
+ 2.334794 0 1 udp 379 ------- 0 0.0 1.0 37 37
- 2.334794 0 1 udp 379 ------- 0 0.0 1.0 37 37
r 2.365114 0 1 udp 379 ------- 0 0.0 1.0 37 37
+ 2.380543 0 1 udp 379 ------- 0 0.0 1.0 38 38
- 2.380543 0 1 udp 379 ------- 0 0.0 1.0 38 38
r 2.410863 0 1 udp 379 ------- 0 0.0 1.0 38 38
+ 2.465123 0 1 udp 379 ------- 0 0.0 1.0 39 39
- 2.465123 0 1 udp 379 ------- 0 0.0 1.0 39 39
+ 2.471154 0 1 udp 379 ------- 0 0.0 1.0 40 40
+ 2.473944 0 1 udp 379 ------- 0 0.0 1.0 41 41
+ 2.479753 0 1 udp 379 ------- 0 0.0 1.0 42 42
r 2.495443 0 1 udp 379 ------- 0 0.0 1.0 39 39
- 2.495443 0 1 udp 379 ------- 0 0.0 1.0 40 40
r 2.525763 0 1 udp 379 ------- 0 0.0 1.0 40 40
- 2.525763 0 1 udp 379 ------- 0 0.0 1.0 41 41
r 2.556083 0 1 udp 379 ------- 0 0.0 1.0 41 41
- 2.556083 0 1 udp 379 ------- 0 0.0 1.0 42 42
r 2.586403 0 1 udp 379 ------- 0 0.0 1.0 42 42
+ 2.590307 0 1 udp 379 ------- 0 0.0 1.0 43 43
- 2.590307 0 1 udp 379 ------- 0 0.0 1.0 43 43
r 2.620627 0 1 udp 379 ------- 0 0.0 1.0 43 43
+ 2.733762 0 1 udp 379 ------- 0 0.0 1.0 44 44
- 2.733762 0 1 udp 379 ------- 0 0.0 1.0 44 44
r 2.764082 0 1 udp 379 ------- 0 0.0 1.0 44 44
+ 2.96242 0 1 udp 379 ------- 0 0.0 1.0 45 45
- 2.96242 0 1 udp 379 ------- 0 0.0 1.0 45 45
+ 2.98864 0 1 udp 379 ------- 0 0.0 1.0 46 46
r 2.99274 0 1 udp 379 ------- 0 0.0 1.0 45 45
- 2.99274 0 1 udp 379 ------- 0 0.0 1.0 46 46
r 3.02306 0 1 udp 379 ------- 0 0.0 1.0 46 46
+ 3.043773 0 1 udp 379 ------- 0 0.0 1.0 47 47
- 3.043773 0 1 udp 379 ------- 0 0.0 1.0 47 47
r 3.074093 0 1 udp 379 ------- 0 0.0 1.0 47 47
+ 3.149568 0 1 udp 379 ------- 0 0.0 1.0 48 48
- 3.149568 0 1 udp 379 ------- 0 0.0 1.0 48 48
+ 3.169898 0 1 udp 379 ------- 0 0.0 1.0 49 49
r 3.179888 0 1 udp 379 ------- 0 0.0 1.0 48 48
- 3.179888 0 1 udp 379 ------- 0 0.0 1.0 49 49
r 3.210208 0 1 udp 379 ------- 0 0.0 1.0 49 49
+ 3.238519 0 1 udp 379 ------- 0 0.0 1.0 50 50
- 3.238519 0 1 udp 379 ------- 0 0.0 1.0 50 50
+ 3.256629 0 1 udp 379 ------- 0 0.0 1.0 51 51
r 3.268839 0 1 udp 379 ------- 0 0.0 1.0 50 50
- 3.268839 0 1 udp 379 ------- 0 0.0 1.0 51 51
+ 3.2873 0 1 udp 379 ------- 0 0.0 1.0 52 52
+ 3.293949 0 1 udp 379 ------- 0 0.0 1.0 53 53
r 3.299159 0 1 udp 379 ------- 0 0.0 1.0 51 51
- 3.299159 0 1 udp 379 ------- 0 0.0 1.0 52 52
r 3.329479 0 1 udp 379 ------- 0 0.0 1.0 52 52
- 3.329479 0 1 udp 379 ------- 0 0.0 1.0 53 53
r 3.359799 0 1 udp 379 ------- 0 0.0 1.0 53 53
+ 3.36163 0 1 udp 379 ------- 0 0.0 1.0 54 54
- 3.36163 0 1 udp 379 ------- 0 0.0 1.0 54 54
+ 3.391381 0 1 udp 379 ------- 0 0.0 1.0 55 55
r 3.39195 0 1 udp 379 ------- 0 0.0 1.0 54 54
- 3.39195 0 1 udp 379 ------- 0 0.0 1.0 55 55
r 3.42227 0 1 udp 379 ------- 0 0.0 1.0 55 55
+ 3.434515 0 1 udp 379 ------- 0 0.0 1.0 56 56
- 3.434515 0 1 udp 379 ------- 0 0.0 1.0 56 56
r 3.464835 0 1 udp 379 ------- 0 0.0 1.0 56 56
+ 3.615903 0 1 udp 379 ------- 0 0.0 1.0 57 57
- 3.615903 0 1 udp 379 ------- 0 0.0 1.0 57 57
r 3.646223 0 1 udp 379 ------- 0 0.0 1.0 57 57
+ 3.672308 0 1 udp 379 ------- 0 0.0 1.0 58 58
- 3.672308 0 1 udp 379 ------- 0 0.0 1.0 58 58
r 3.702628 0 1 udp 379 ------- 0 0.0 1.0 58 58
+ 3.7572 0 1 udp 379 ------- 0 0.0 1.0 59 59
- 3.7572 0 1 udp 379 ------- 0 0.0 1.0 59 59
+ 3.769427 0 1 udp 379 ------- 0 0.0 1.0 60 60
+ 3.772187 0 1 udp 379 ------- 0 0.0 1.0 61 61
+ 3.785211 0 1 udp 379 ------- 0 0.0 1.0 62 62
r 3.78752 0 1 udp 379 ------- 0 0.0 1.0 59 59
- 3.78752 0 1 udp 379 ------- 0 0.0 1.0 60 60
r 3.81784 0 1 udp 379 ------- 0 0.0 1.0 60 60
- 3.81784 0 1 udp 379 ------- 0 0.0 1.0 61 61
r 3.84816 0 1 udp 379 ------- 0 0.0 1.0 61 61
- 3.84816 0 1 udp 379 ------- 0 0.0 1.0 62 62
+ 3.864823 0 1 udp 379 ------- 0 0.0 1.0 63 63
r 3.87848 0 1 udp 379 ------- 0 0.0 1.0 62 62
- 3.87848 0 1 udp 379 ------- 0 0.0 1.0 63 63
+ 3.883203 0 1 udp 379 ------- 0 0.0 1.0 64 64
r 3.9088 0 1 udp 379 ------- 0 0.0 1.0 63 63
- 3.9088 0 1 udp 379 ------- 0 0.0 1.0 64 64
r 3.93912 0 1 udp 379 ------- 0 0.0 1.0 64 64
+ 3.970168 0 1 udp 379 ------- 0 0.0 1.0 65 65
- 3.970168 0 1 udp 379 ------- 0 0.0 1.0 65 65
+ 3.971394 0 1 udp 379 ------- 0 0.0 1.0 66 66
r 4.000488 0 1 udp 379 ------- 0 0.0 1.0 65 65
- 4.000488 0 1 udp 379 ------- 0 0.0 1.0 66 66
r 4.030808 0 1 udp 379 ------- 0 0.0 1.0 66 66
+ 4.092252 0 1 udp 379 ------- 0 0.0 1.0 67 67
- 4.092252 0 1 udp 379 ------- 0 0.0 1.0 67 67
r 4.122572 0 1 udp 379 ------- 0 0.0 1.0 67 67
+ 4.128102 0 1 udp 379 ------- 0 0.0 1.0 68 68
- 4.128102 0 1 udp 379 ------- 0 0.0 1.0 68 68
r 4.158422 0 1 udp 379 ------- 0 0.0 1.0 68 68
+ 4.279267 0 1 udp 379 ------- 0 0.0 1.0 69 69
- 4.279267 0 1 udp 379 ------- 0 0.0 1.0 69 69
+ 4.286586 0 1 udp 379 ------- 0 0.0 1.0 70 70
r 4.309587 0 1 udp 379 ------- 0 0.0 1.0 69 69
- 4.309587 0 1 udp 379 ------- 0 0.0 1.0 70 70
+ 4.318375 0 1 udp 379 ------- 0 0.0 1.0 71 71
+ 4.333918 0 1 udp 379 ------- 0 0.0 1.0 72 72
r 4.339907 0 1 udp 379 ------- 0 0.0 1.0 70 70
- 4.339907 0 1 udp 379 ------- 0 0.0 1.0 71 71
r 4.370227 0 1 udp 379 ------- 0 0.0 1.0 71 71
- 4.370227 0 1 udp 379 ------- 0 0.0 1.0 72 72
+ 4.377585 0 1 udp 379 ------- 0 0.0 1.0 73 73
r 4.400547 0 1 udp 379 ------- 0 0.0 1.0 72 72
- 4.400547 0 1 udp 379 ------- 0 0.0 1.0 73 73
r 4.430867 0 1 udp 379 ------- 0 0.0 1.0 73 73
+ 4.500219 0 1 udp 379 ------- 0 0.0 1.0 74 74
- 4.500219 0 1 udp 379 ------- 0 0.0 1.0 74 74
+ 4.510588 0 1 udp 379 ------- 0 0.0 1.0 75 75
+ 4.515749 0 1 udp 379 ------- 0 0.0 1.0 76 76
r 4.530539 0 1 udp 379 ------- 0 0.0 1.0 74 74
- 4.530539 0 1 udp 379 ------- 0 0.0 1.0 75 75
+ 4.531779 0 1 udp 379 ------- 0 0.0 1.0 77 77
+ 4.538544 0 1 udp 379 ------- 0 0.0 1.0 78 78
r 4.560859 0 1 udp 379 ------- 0 0.0 1.0 75 75
- 4.560859 0 1 udp 379 ------- 0 0.0 1.0 76 76
+ 4.565526 0 1 udp 379 ------- 0 0.0 1.0 79 79
+ 4.581018 0 1 udp 379 ------- 0 0.0 1.0 80 80
r 4.591179 0 1 udp 379 ------- 0 0.0 1.0 76 76
- 4.591179 0 1 udp 379 ------- 0 0.0 1.0 77 77
+ 4.592161 0 1 udp 379 ------- 0 0.0 1.0 81 81
r 4.621499 0 1 udp 379 ------- 0 0.0 1.0 77 77
- 4.621499 0 1 udp 379 ------- 0 0.0 1.0 78 78
+ 4.644315 0 1 udp 379 ------- 0 0.0 1.0 82 82
r 4.651819 0 1 udp 379 ------- 0 0.0 1.0 78 78
- 4.651819 0 1 udp 379 ------- 0 0.0 1.0 79 79
+ 4.673743 0 1 udp 379 ------- 0 0.0 1.0 83 83
r 4.682139 0 1 udp 379 ------- 0 0.0 1.0 79 79
- 4.682139 0 1 udp 379 ------- 0 0.0 1.0 80 80
+ 4.684038 0 1 udp 379 ------- 0 0.0 1.0 84 84
+ 4.696343 0 1 udp 379 ------- 0 0.0 1.0 85 85
r 4.712459 0 1 udp 379 ------- 0 0.0 1.0 80 80
- 4.712459 0 1 udp 379 ------- 0 0.0 1.0 81 81
+ 4.71706 0 1 udp 379 ------- 0 0.0 1.0 86 86
r 4.742779 0 1 udp 379 ------- 0 0.0 1.0 81 81
- 4.742779 0 1 udp 379 ------- 0 0.0 1.0 82 82
r 4.773099 0 1 udp 379 ------- 0 0.0 1.0 82 82
- 4.773099 0 1 udp 379 ------- 0 0.0 1.0 83 83
r 4.803419 0 1 udp 379 ------- 0 0.0 1.0 83 83
- 4.803419 0 1 udp 379 ------- 0 0.0 1.0 84 84
+ 4.812878 0 1 udp 379 ------- 0 0.0 1.0 87 87
r 4.833739 0 1 udp 379 ------- 0 0.0 1.0 84 84
- 4.833739 0 1 udp 379 ------- 0 0.0 1.0 85 85
+ 4.858356 0 1 udp 379 ------- 0 0.0 1.0 88 88
r 4.864059 0 1 udp 379 ------- 0 0.0 1.0 85 85
- 4.864059 0 1 udp 379 ------- 0 0.0 1.0 86 86
+ 4.888907 0 1 udp 379 ------- 0 0.0 1.0 89 89
r 4.894379 0 1 udp 379 ------- 0 0.0 1.0 86 86
- 4.894379 0 1 udp 379 ------- 0 0.0 1.0 87 87
r 4.924699 0 1 udp 379 ------- 0 0.0 1.0 87 87
- 4.924699 0 1 udp 379 ------- 0 0.0 1.0 88 88
+ 4.938632 0 1 udp 379 ------- 0 0.0 1.0 90 90
r 4.955019 0 1 udp 379 ------- 0 0.0 1.0 88 88
- 4.955019 0 1 udp 379 ------- 0 0.0 1.0 89 89
r 4.985339 0 1 udp 379 ------- 0 0.0 1.0 89 89
- 4.985339 0 1 udp 379 ------- 0 0.0 1.0 90 90
r 5.015659 0 1 udp 379 ------- 0 0.0 1.0 90 90
+ 5.375671 0 1 udp 379 ------- 0 0.0 1.0 91 91
- 5.375671 0 1 udp 379 ------- 0 0.0 1.0 91 91
r 5.405991 0 1 udp 379 ------- 0 0.0 1.0 91 91
+ 5.501113 0 1 udp 379 ------- 0 0.0 1.0 92 92
- 5.501113 0 1 udp 379 ------- 0 0.0 1.0 92 92
r 5.531433 0 1 udp 379 ------- 0 0.0 1.0 92 92
+ 5.556768 0 1 udp 379 ------- 0 0.0 1.0 93 93
- 5.556768 0 1 udp 379 ------- 0 0.0 1.0 93 93
+ 5.575094 0 1 udp 379 ------- 0 0.0 1.0 94 94
+ 5.57975 0 1 udp 379 ------- 0 0.0 1.0 95 95
r 5.587088 0 1 udp 379 ------- 0 0.0 1.0 93 93
- 5.587088 0 1 udp 379 ------- 0 0.0 1.0 94 94
r 5.617408 0 1 udp 379 ------- 0 0.0 1.0 94 94
- 5.617408 0 1 udp 379 ------- 0 0.0 1.0 95 95
r 5.647728 0 1 udp 379 ------- 0 0.0 1.0 95 95
+ 5.752354 0 1 udp 379 ------- 0 0.0 1.0 96 96
- 5.752354 0 1 udp 379 ------- 0 0.0 1.0 96 96
r 5.782674 0 1 udp 379 ------- 0 0.0 1.0 96 96
+ 5.803221 0 1 udp 379 ------- 0 0.0 1.0 97 97
- 5.803221 0 1 udp 379 ------- 0 0.0 1.0 97 97
r 5.833541 0 1 udp 379 ------- 0 0.0 1.0 97 97
+ 5.863195 0 1 udp 379 ------- 0 0.0 1.0 98 98
- 5.863195 0 1 udp 379 ------- 0 0.0 1.0 98 98
r 5.893515 0 1 udp 379 ------- 0 0.0 1.0 98 98
+ 6.151009 0 1 udp 379 ------- 0 0.0 1.0 99 99
- 6.151009 0 1 udp 379 ------- 0 0.0 1.0 99 99
r 6.181329 0 1 udp 379 ------- 0 0.0 1.0 99 99
+ 6.208283 0 1 udp 379 ------- 0 0.0 1.0 100 100
- 6.208283 0 1 udp 379 ------- 0 0.0 1.0 100 100
+ 6.214667 0 1 udp 379 ------- 0 0.0 1.0 101 101
+ 6.221124 0 1 udp 379 ------- 0 0.0 1.0 102 102
+ 6.232027 0 1 udp 379 ------- 0 0.0 1.0 103 103
r 6.238603 0 1 udp 379 ------- 0 0.0 1.0 100 100
- 6.238603 0 1 udp 379 ------- 0 0.0 1.0 101 101
r 6.268923 0 1 udp 379 ------- 0 0.0 1.0 101 101
- 6.268923 0 1 udp 379 ------- 0 0.0 1.0 102 102
r 6.299243 0 1 udp 379 ------- 0 0.0 1.0 102 102
- 6.299243 0 1 udp 379 ------- 0 0.0 1.0 103 103
+ 6.321159 0 1 udp 379 ------- 0 0.0 1.0 104 104
r 6.329563 0 1 udp 379 ------- 0 0.0 1.0 103 103
- 6.329563 0 1 udp 379 ------- 0 0.0 1.0 104 104
r 6.359883 0 1 udp 379 ------- 0 0.0 1.0 104 104
+ 6.49509 0 1 udp 379 ------- 0 0.0 1.0 105 105
- 6.49509 0 1 udp 379 ------- 0 0.0 1.0 105 105
+ 6.509269 0 1 udp 379 ------- 0 0.0 1.0 106 106
r 6.52541 0 1 udp 379 ------- 0 0.0 1.0 105 105
- 6.52541 0 1 udp 379 ------- 0 0.0 1.0 106 106
+ 6.533791 0 1 udp 379 ------- 0 0.0 1.0 107 107
+ 6.54572 0 1 udp 379 ------- 0 0.0 1.0 108 108
r 6.55573 0 1 udp 379 ------- 0 0.0 1.0 106 106
- 6.55573 0 1 udp 379 ------- 0 0.0 1.0 107 107
+ 6.578674 0 1 udp 379 ------- 0 0.0 1.0 109 109
r 6.58605 0 1 udp 379 ------- 0 0.0 1.0 107 107
- 6.58605 0 1 udp 379 ------- 0 0.0 1.0 108 108
r 6.61637 0 1 udp 379 ------- 0 0.0 1.0 108 108
- 6.61637 0 1 udp 379 ------- 0 0.0 1.0 109 109
+ 6.618862 0 1 udp 379 ------- 0 0.0 1.0 110 110
r 6.64669 0 1 udp 379 ------- 0 0.0 1.0 109 109
- 6.64669 0 1 udp 379 ------- 0 0.0 1.0 110 110
r 6.67701 0 1 udp 379 ------- 0 0.0 1.0 110 110
+ 6.698259 0 1 udp 379 ------- 0 0.0 1.0 111 111
- 6.698259 0 1 udp 379 ------- 0 0.0 1.0 111 111
r 6.728579 0 1 udp 379 ------- 0 0.0 1.0 111 111
+ 6.907115 0 1 udp 379 ------- 0 0.0 1.0 112 112
- 6.907115 0 1 udp 379 ------- 0 0.0 1.0 112 112
r 6.937435 0 1 udp 379 ------- 0 0.0 1.0 112 112
+ 6.948588 0 1 udp 379 ------- 0 0.0 1.0 113 113
- 6.948588 0 1 udp 379 ------- 0 0.0 1.0 113 113
r 6.978908 0 1 udp 379 ------- 0 0.0 1.0 113 113
+ 6.990372 0 1 udp 379 ------- 0 0.0 1.0 114 114
- 6.990372 0 1 udp 379 ------- 0 0.0 1.0 114 114
r 7.020692 0 1 udp 379 ------- 0 0.0 1.0 114 114
+ 7.04618 0 1 udp 379 ------- 0 0.0 1.0 115 115
- 7.04618 0 1 udp 379 ------- 0 0.0 1.0 115 115
r 7.0765 0 1 udp 379 ------- 0 0.0 1.0 115 115
+ 7.153611 0 1 udp 379 ------- 0 0.0 1.0 116 116
- 7.153611 0 1 udp 379 ------- 0 0.0 1.0 116 116
+ 7.158965 0 1 udp 379 ------- 0 0.0 1.0 117 117
r 7.183931 0 1 udp 379 ------- 0 0.0 1.0 116 116
- 7.183931 0 1 udp 379 ------- 0 0.0 1.0 117 117
r 7.214251 0 1 udp 379 ------- 0 0.0 1.0 117 117
+ 7.236797 0 1 udp 379 ------- 0 0.0 1.0 118 118
- 7.236797 0 1 udp 379 ------- 0 0.0 1.0 118 118
r 7.267117 0 1 udp 379 ------- 0 0.0 1.0 118 118
+ 7.279374 0 1 udp 379 ------- 0 0.0 1.0 119 119
- 7.279374 0 1 udp 379 ------- 0 0.0 1.0 119 119
r 7.309694 0 1 udp 379 ------- 0 0.0 1.0 119 119
+ 7.322836 0 1 udp 379 ------- 0 0.0 1.0 120 120
- 7.322836 0 1 udp 379 ------- 0 0.0 1.0 120 120
r 7.353156 0 1 udp 379 ------- 0 0.0 1.0 120 120
+ 7.368178 0 1 udp 379 ------- 0 0.0 1.0 121 121
- 7.368178 0 1 udp 379 ------- 0 0.0 1.0 121 121
+ 7.383683 0 1 udp 379 ------- 0 0.0 1.0 122 122
r 7.398498 0 1 udp 379 ------- 0 0.0 1.0 121 121
- 7.398498 0 1 udp 379 ------- 0 0.0 1.0 122 122
+ 7.420252 0 1 udp 379 ------- 0 0.0 1.0 123 123
+ 7.425753 0 1 udp 379 ------- 0 0.0 1.0 124 124
r 7.428818 0 1 udp 379 ------- 0 0.0 1.0 122 122
- 7.428818 0 1 udp 379 ------- 0 0.0 1.0 123 123
+ 7.449661 0 1 udp 379 ------- 0 0.0 1.0 125 125
+ 7.457823 0 1 udp 379 ------- 0 0.0 1.0 126 126
r 7.459138 0 1 udp 379 ------- 0 0.0 1.0 123 123
- 7.459138 0 1 udp 379 ------- 0 0.0 1.0 124 124
r 7.489458 0 1 udp 379 ------- 0 0.0 1.0 124 124
- 7.489458 0 1 udp 379 ------- 0 0.0 1.0 125 125
r 7.519778 0 1 udp 379 ------- 0 0.0 1.0 125 125
- 7.519778 0 1 udp 379 ------- 0 0.0 1.0 126 126
r 7.550098 0 1 udp 379 ------- 0 0.0 1.0 126 126
+ 7.550849 0 1 udp 379 ------- 0 0.0 1.0 127 127
- 7.550849 0 1 udp 379 ------- 0 0.0 1.0 127 127
r 7.581169 0 1 udp 379 ------- 0 0.0 1.0 127 127
+ 7.623873 0 1 udp 379 ------- 0 0.0 1.0 128 128
- 7.623873 0 1 udp 379 ------- 0 0.0 1.0 128 128
r 7.654193 0 1 udp 379 ------- 0 0.0 1.0 128 128
+ 7.76232 0 1 udp 379 ------- 0 0.0 1.0 129 129
- 7.76232 0 1 udp 379 ------- 0 0.0 1.0 129 129
r 7.79264 0 1 udp 379 ------- 0 0.0 1.0 129 129
+ 7.849865 0 1 udp 379 ------- 0 0.0 1.0 130 130
- 7.849865 0 1 udp 379 ------- 0 0.0 1.0 130 130
+ 7.856821 0 1 udp 379 ------- 0 0.0 1.0 131 131
r 7.880185 0 1 udp 379 ------- 0 0.0 1.0 130 130
- 7.880185 0 1 udp 379 ------- 0 0.0 1.0 131 131
r 7.910505 0 1 udp 379 ------- 0 0.0 1.0 131 131
+ 8.020021 0 1 udp 379 ------- 0 0.0 1.0 132 132
- 8.020021 0 1 udp 379 ------- 0 0.0 1.0 132 132
+ 8.047663 0 1 udp 379 ------- 0 0.0 1.0 133 133
r 8.050341 0 1 udp 379 ------- 0 0.0 1.0 132 132
- 8.050341 0 1 udp 379 ------- 0 0.0 1.0 133 133
+ 8.065231 0 1 udp 379 ------- 0 0.0 1.0 134 134
r 8.080661 0 1 udp 379 ------- 0 0.0 1.0 133 133
- 8.080661 0 1 udp 379 ------- 0 0.0 1.0 134 134
r 8.110981 0 1 udp 379 ------- 0 0.0 1.0 134 134
+ 8.140158 0 1 udp 379 ------- 0 0.0 1.0 135 135
- 8.140158 0 1 udp 379 ------- 0 0.0 1.0 135 135
+ 8.149554 0 1 udp 379 ------- 0 0.0 1.0 136 136
r 8.170478 0 1 udp 379 ------- 0 0.0 1.0 135 135
- 8.170478 0 1 udp 379 ------- 0 0.0 1.0 136 136
r 8.200798 0 1 udp 379 ------- 0 0.0 1.0 136 136
+ 8.292753 0 1 udp 379 ------- 0 0.0 1.0 137 137
- 8.292753 0 1 udp 379 ------- 0 0.0 1.0 137 137
r 8.323073 0 1 udp 379 ------- 0 0.0 1.0 137 137
+ 8.347244 0 1 udp 379 ------- 0 0.0 1.0 138 138
- 8.347244 0 1 udp 379 ------- 0 0.0 1.0 138 138
+ 8.358892 0 1 udp 379 ------- 0 0.0 1.0 139 139
r 8.377564 0 1 udp 379 ------- 0 0.0 1.0 138 138
- 8.377564 0 1 udp 379 ------- 0 0.0 1.0 139 139
+ 8.381663 0 1 udp 379 ------- 0 0.0 1.0 140 140
r 8.407884 0 1 udp 379 ------- 0 0.0 1.0 139 139
- 8.407884 0 1 udp 379 ------- 0 0.0 1.0 140 140
+ 8.423889 0 1 udp 379 ------- 0 0.0 1.0 141 141
r 8.438204 0 1 udp 379 ------- 0 0.0 1.0 140 140
- 8.438204 0 1 udp 379 ------- 0 0.0 1.0 141 141
r 8.468524 0 1 udp 379 ------- 0 0.0 1.0 141 141
+ 8.49834 0 1 udp 379 ------- 0 0.0 1.0 142 142
- 8.49834 0 1 udp 379 ------- 0 0.0 1.0 142 142
r 8.52866 0 1 udp 379 ------- 0 0.0 1.0 142 142
+ 8.539592 0 1 udp 379 ------- 0 0.0 1.0 143 143
- 8.539592 0 1 udp 379 ------- 0 0.0 1.0 143 143
+ 8.542722 0 1 udp 379 ------- 0 0.0 1.0 144 144
r 8.569912 0 1 udp 379 ------- 0 0.0 1.0 143 143
- 8.569912 0 1 udp 379 ------- 0 0.0 1.0 144 144
+ 8.581943 0 1 udp 379 ------- 0 0.0 1.0 145 145
+ 8.587184 0 1 udp 379 ------- 0 0.0 1.0 146 146
+ 8.589366 0 1 udp 379 ------- 0 0.0 1.0 147 147
+ 8.594368 0 1 udp 379 ------- 0 0.0 1.0 148 148
r 8.600232 0 1 udp 379 ------- 0 0.0 1.0 144 144
- 8.600232 0 1 udp 379 ------- 0 0.0 1.0 145 145
r 8.630552 0 1 udp 379 ------- 0 0.0 1.0 145 145
- 8.630552 0 1 udp 379 ------- 0 0.0 1.0 146 146
r 8.660872 0 1 udp 379 ------- 0 0.0 1.0 146 146
- 8.660872 0 1 udp 379 ------- 0 0.0 1.0 147 147
+ 8.689581 0 1 udp 379 ------- 0 0.0 1.0 149 149
r 8.691192 0 1 udp 379 ------- 0 0.0 1.0 147 147
- 8.691192 0 1 udp 379 ------- 0 0.0 1.0 148 148
+ 8.692437 0 1 udp 379 ------- 0 0.0 1.0 150 150
r 8.721512 0 1 udp 379 ------- 0 0.0 1.0 148 148
- 8.721512 0 1 udp 379 ------- 0 0.0 1.0 149 149
+ 8.723536 0 1 udp 379 ------- 0 0.0 1.0 151 151
r 8.751832 0 1 udp 379 ------- 0 0.0 1.0 149 149
- 8.751832 0 1 udp 379 ------- 0 0.0 1.0 150 150
+ 8.755093 0 1 udp 379 ------- 0 0.0 1.0 152 152
r 8.782152 0 1 udp 379 ------- 0 0.0 1.0 150 150
- 8.782152 0 1 udp 379 ------- 0 0.0 1.0 151 151
r 8.812472 0 1 udp 379 ------- 0 0.0 1.0 151 151
- 8.812472 0 1 udp 379 ------- 0 0.0 1.0 152 152
r 8.842792 0 1 udp 379 ------- 0 0.0 1.0 152 152
+ 8.892001 0 1 udp 379 ------- 0 0.0 1.0 153 153
- 8.892001 0 1 udp 379 ------- 0 0.0 1.0 153 153
+ 8.893444 0 1 udp 379 ------- 0 0.0 1.0 154 154
r 8.922321 0 1 udp 379 ------- 0 0.0 1.0 153 153
- 8.922321 0 1 udp 379 ------- 0 0.0 1.0 154 154
+ 8.926662 0 1 udp 379 ------- 0 0.0 1.0 155 155
+ 8.933062 0 1 udp 379 ------- 0 0.0 1.0 156 156
+ 8.948972 0 1 udp 379 ------- 0 0.0 1.0 157 157
r 8.952641 0 1 udp 379 ------- 0 0.0 1.0 154 154
- 8.952641 0 1 udp 379 ------- 0 0.0 1.0 155 155
r 8.982961 0 1 udp 379 ------- 0 0.0 1.0 155 155
- 8.982961 0 1 udp 379 ------- 0 0.0 1.0 156 156
r 9.013281 0 1 udp 379 ------- 0 0.0 1.0 156 156
- 9.013281 0 1 udp 379 ------- 0 0.0 1.0 157 157
+ 9.016453 0 1 udp 379 ------- 0 0.0 1.0 158 158
r 9.043601 0 1 udp 379 ------- 0 0.0 1.0 157 157
- 9.043601 0 1 udp 379 ------- 0 0.0 1.0 158 158
+ 9.053573 0 1 udp 379 ------- 0 0.0 1.0 159 159
+ 9.068123 0 1 udp 379 ------- 0 0.0 1.0 160 160
r 9.073921 0 1 udp 379 ------- 0 0.0 1.0 158 158
- 9.073921 0 1 udp 379 ------- 0 0.0 1.0 159 159
r 9.104241 0 1 udp 379 ------- 0 0.0 1.0 159 159
- 9.104241 0 1 udp 379 ------- 0 0.0 1.0 160 160
r 9.134561 0 1 udp 379 ------- 0 0.0 1.0 160 160
+ 9.147944 0 1 udp 379 ------- 0 0.0 1.0 161 161
- 9.147944 0 1 udp 379 ------- 0 0.0 1.0 161 161
+ 9.167766 0 1 udp 379 ------- 0 0.0 1.0 162 162
r 9.178264 0 1 udp 379 ------- 0 0.0 1.0 161 161
- 9.178264 0 1 udp 379 ------- 0 0.0 1.0 162 162
+ 9.188962 0 1 udp 379 ------- 0 0.0 1.0 163 163
r 9.208584 0 1 udp 379 ------- 0 0.0 1.0 162 162
- 9.208584 0 1 udp 379 ------- 0 0.0 1.0 163 163
r 9.238904 0 1 udp 379 ------- 0 0.0 1.0 163 163
+ 9.280934 0 1 udp 379 ------- 0 0.0 1.0 164 164
- 9.280934 0 1 udp 379 ------- 0 0.0 1.0 164 164
r 9.311254 0 1 udp 379 ------- 0 0.0 1.0 164 164
+ 9.348054 0 1 udp 379 ------- 0 0.0 1.0 165 165
- 9.348054 0 1 udp 379 ------- 0 0.0 1.0 165 165
r 9.378374 0 1 udp 379 ------- 0 0.0 1.0 165 165
+ 9.397104 0 1 udp 379 ------- 0 0.0 1.0 166 166
- 9.397104 0 1 udp 379 ------- 0 0.0 1.0 166 166
+ 9.421925 0 1 udp 379 ------- 0 0.0 1.0 167 167
r 9.427424 0 1 udp 379 ------- 0 0.0 1.0 166 166
- 9.427424 0 1 udp 379 ------- 0 0.0 1.0 167 167
+ 9.443261 0 1 udp 379 ------- 0 0.0 1.0 168 168
+ 9.451199 0 1 udp 379 ------- 0 0.0 1.0 169 169
r 9.457744 0 1 udp 379 ------- 0 0.0 1.0 167 167
- 9.457744 0 1 udp 379 ------- 0 0.0 1.0 168 168
r 9.488064 0 1 udp 379 ------- 0 0.0 1.0 168 168
- 9.488064 0 1 udp 379 ------- 0 0.0 1.0 169 169
+ 9.515413 0 1 udp 379 ------- 0 0.0 1.0 170 170
r 9.518384 0 1 udp 379 ------- 0 0.0 1.0 169 169
- 9.518384 0 1 udp 379 ------- 0 0.0 1.0 170 170
r 9.548704 0 1 udp 379 ------- 0 0.0 1.0 170 170
+ 9.605972 0 1 udp 379 ------- 0 0.0 1.0 171 171
- 9.605972 0 1 udp 379 ------- 0 0.0 1.0 171 171
r 9.636292 0 1 udp 379 ------- 0 0.0 1.0 171 171
+ 9.689081 0 1 udp 379 ------- 0 0.0 1.0 172 172
- 9.689081 0 1 udp 379 ------- 0 0.0 1.0 172 172
r 9.719401 0 1 udp 379 ------- 0 0.0 1.0 172 172
+ 9.849702 0 1 udp 379 ------- 0 0.0 1.0 173 173
- 9.849702 0 1 udp 379 ------- 0 0.0 1.0 173 173
r 9.880022 0 1 udp 379 ------- 0 0.0 1.0 173 173
+ 9.978935 0 1 udp 379 ------- 0 0.0 1.0 174 174
- 9.978935 0 1 udp 379 ------- 0 0.0 1.0 174 174
r 10.009255 0 1 udp 379 ------- 0 0.0 1.0 174 174
+ 10.086265 0 1 udp 379 ------- 0 0.0 1.0 175 175
- 10.086265 0 1 udp 379 ------- 0 0.0 1.0 175 175
r 10.116585 0 1 udp 379 ------- 0 0.0 1.0 175 175
+ 10.233756 0 1 udp 379 ------- 0 0.0 1.0 176 176
- 10.233756 0 1 udp 379 ------- 0 0.0 1.0 176 176
r 10.264076 0 1 udp 379 ------- 0 0.0 1.0 176 176
+ 10.285477 0 1 udp 379 ------- 0 0.0 1.0 177 177
- 10.285477 0 1 udp 379 ------- 0 0.0 1.0 177 177
r 10.315797 0 1 udp 379 ------- 0 0.0 1.0 177 177
+ 10.363265 0 1 udp 379 ------- 0 0.0 1.0 178 178
- 10.363265 0 1 udp 379 ------- 0 0.0 1.0 178 178
r 10.393585 0 1 udp 379 ------- 0 0.0 1.0 178 178
+ 10.509433 0 1 udp 379 ------- 0 0.0 1.0 179 179
- 10.509433 0 1 udp 379 ------- 0 0.0 1.0 179 179
+ 10.51182 0 1 udp 379 ------- 0 0.0 1.0 180 180
+ 10.521707 0 1 udp 379 ------- 0 0.0 1.0 181 181
+ 10.539121 0 1 udp 379 ------- 0 0.0 1.0 182 182
r 10.539753 0 1 udp 379 ------- 0 0.0 1.0 179 179
- 10.539753 0 1 udp 379 ------- 0 0.0 1.0 180 180
r 10.570073 0 1 udp 379 ------- 0 0.0 1.0 180 180
- 10.570073 0 1 udp 379 ------- 0 0.0 1.0 181 181
+ 10.581704 0 1 udp 379 ------- 0 0.0 1.0 183 183
+ 10.591112 0 1 udp 379 ------- 0 0.0 1.0 184 184
r 10.600393 0 1 udp 379 ------- 0 0.0 1.0 181 181
- 10.600393 0 1 udp 379 ------- 0 0.0 1.0 182 182
r 10.630713 0 1 udp 379 ------- 0 0.0 1.0 182 182
- 10.630713 0 1 udp 379 ------- 0 0.0 1.0 183 183
+ 10.638304 0 1 udp 379 ------- 0 0.0 1.0 185 185
r 10.661033 0 1 udp 379 ------- 0 0.0 1.0 183 183
- 10.661033 0 1 udp 379 ------- 0 0.0 1.0 184 184
+ 10.6691 0 1 udp 379 ------- 0 0.0 1.0 186 186
r 10.691353 0 1 udp 379 ------- 0 0.0 1.0 184 184
- 10.691353 0 1 udp 379 ------- 0 0.0 1.0 185 185
r 10.721673 0 1 udp 379 ------- 0 0.0 1.0 185 185
- 10.721673 0 1 udp 379 ------- 0 0.0 1.0 186 186
r 10.751993 0 1 udp 379 ------- 0 0.0 1.0 186 186
+ 10.772204 0 1 udp 379 ------- 0 0.0 1.0 187 187
- 10.772204 0 1 udp 379 ------- 0 0.0 1.0 187 187
+ 10.799695 0 1 udp 379 ------- 0 0.0 1.0 188 188
r 10.802524 0 1 udp 379 ------- 0 0.0 1.0 187 187
- 10.802524 0 1 udp 379 ------- 0 0.0 1.0 188 188
r 10.832844 0 1 udp 379 ------- 0 0.0 1.0 188 188
+ 10.843866 0 1 udp 379 ------- 0 0.0 1.0 189 189
- 10.843866 0 1 udp 379 ------- 0 0.0 1.0 189 189
+ 10.853467 0 1 udp 379 ------- 0 0.0 1.0 190 190
+ 10.864367 0 1 udp 379 ------- 0 0.0 1.0 191 191
+ 10.872138 0 1 udp 379 ------- 0 0.0 1.0 192 192
r 10.874186 0 1 udp 379 ------- 0 0.0 1.0 189 189
- 10.874186 0 1 udp 379 ------- 0 0.0 1.0 190 190
r 10.904506 0 1 udp 379 ------- 0 0.0 1.0 190 190
- 10.904506 0 1 udp 379 ------- 0 0.0 1.0 191 191
r 10.934826 0 1 udp 379 ------- 0 0.0 1.0 191 191
- 10.934826 0 1 udp 379 ------- 0 0.0 1.0 192 192
r 10.965146 0 1 udp 379 ------- 0 0.0 1.0 192 192
+ 11.157339 0 1 udp 379 ------- 0 0.0 1.0 193 193
- 11.157339 0 1 udp 379 ------- 0 0.0 1.0 193 193
+ 11.169013 0 1 udp 379 ------- 0 0.0 1.0 194 194
r 11.187659 0 1 udp 379 ------- 0 0.0 1.0 193 193
- 11.187659 0 1 udp 379 ------- 0 0.0 1.0 194 194
r 11.217979 0 1 udp 379 ------- 0 0.0 1.0 194 194
+ 11.299117 0 1 udp 379 ------- 0 0.0 1.0 195 195
- 11.299117 0 1 udp 379 ------- 0 0.0 1.0 195 195
r 11.329437 0 1 udp 379 ------- 0 0.0 1.0 195 195
+ 11.377605 0 1 udp 379 ------- 0 0.0 1.0 196 196
- 11.377605 0 1 udp 379 ------- 0 0.0 1.0 196 196
+ 11.386513 0 1 udp 379 ------- 0 0.0 1.0 197 197
r 11.407925 0 1 udp 379 ------- 0 0.0 1.0 196 196
- 11.407925 0 1 udp 379 ------- 0 0.0 1.0 197 197
+ 11.423873 0 1 udp 379 ------- 0 0.0 1.0 198 198
r 11.438245 0 1 udp 379 ------- 0 0.0 1.0 197 197
- 11.438245 0 1 udp 379 ------- 0 0.0 1.0 198 198
r 11.468565 0 1 udp 379 ------- 0 0.0 1.0 198 198
+ 11.5167 0 1 udp 379 ------- 0 0.0 1.0 199 199
- 11.5167 0 1 udp 379 ------- 0 0.0 1.0 199 199
r 11.54702 0 1 udp 379 ------- 0 0.0 1.0 199 199
+ 11.582874 0 1 udp 379 ------- 0 0.0 1.0 200 200
- 11.582874 0 1 udp 379 ------- 0 0.0 1.0 200 200
r 11.613194 0 1 udp 379 ------- 0 0.0 1.0 200 200
+ 11.780617 0 1 udp 379 ------- 0 0.0 1.0 201 201
- 11.780617 0 1 udp 379 ------- 0 0.0 1.0 201 201
+ 11.798331 0 1 udp 379 ------- 0 0.0 1.0 202 202
r 11.810937 0 1 udp 379 ------- 0 0.0 1.0 201 201
- 11.810937 0 1 udp 379 ------- 0 0.0 1.0 202 202
+ 11.840735 0 1 udp 379 ------- 0 0.0 1.0 203 203
r 11.841257 0 1 udp 379 ------- 0 0.0 1.0 202 202
- 11.841257 0 1 udp 379 ------- 0 0.0 1.0 203 203
r 11.871577 0 1 udp 379 ------- 0 0.0 1.0 203 203
+ 11.877027 0 1 udp 379 ------- 0 0.0 1.0 204 204
- 11.877027 0 1 udp 379 ------- 0 0.0 1.0 204 204
r 11.907347 0 1 udp 379 ------- 0 0.0 1.0 204 204
+ 11.936513 0 1 udp 379 ------- 0 0.0 1.0 205 205
- 11.936513 0 1 udp 379 ------- 0 0.0 1.0 205 205
r 11.966833 0 1 udp 379 ------- 0 0.0 1.0 205 205
+ 12.180781 0 1 udp 379 ------- 0 0.0 1.0 206 206
- 12.180781 0 1 udp 379 ------- 0 0.0 1.0 206 206
+ 12.199529 0 1 udp 379 ------- 0 0.0 1.0 207 207
r 12.211101 0 1 udp 379 ------- 0 0.0 1.0 206 206
- 12.211101 0 1 udp 379 ------- 0 0.0 1.0 207 207
r 12.241421 0 1 udp 379 ------- 0 0.0 1.0 207 207
+ 12.266838 0 1 udp 379 ------- 0 0.0 1.0 208 208